LIGGGHTS (Version LIGGGHTS-PUBLIC 3.8.0, compiled 2026-06-11-14:52:41 by joshuamayo, git commit 3d5c00f20519e6bb6eb6756f51f1ad36564e649d)
Created orthogonal box = (-0.14 -0.14 -0.05) to (0.14 0.14 0.2)
  1 by 2 by 1 MPI processor grid
WARNING: 
	The contact model you specified is not located in any whitelist.
	Because of this the model will be run in an unoptimized version (increasing runtime by up to 20%).
	In order to optimize this model you have the following options:
		(i)  Run the genAutoExamplesWhitelist.sh script in your LIGGGHTS(R) source folder to automatically parse the input script
		(ii) Add the model combination by hand to your style_contact_model_user.whitelist that can be found in your LIGGGHTS(R) source folder
		(iii) Use the ENABLE_MODEL_* flag when building with cmake.
	If you perform one of the steps above LIGGGHTS(R) needs to be recompiled to generate the optimized code.

 (../contact_models.h:365)

Reading STL file '../../../../../templates/meshes/cylinder_r0.040_h0.100.stl' (mesh processing step 1/3) 

Reading STL file '../../../../../templates/meshes/floor_annulus_r0.046_o0.011.stl' (mesh processing step 1/3) 

Reading STL file '../../../../../templates/meshes/plug_disk_r0.0135.stl' (mesh processing step 1/3) 
WARNING: 
	The contact model you specified is not located in any whitelist.
	Because of this the model will be run in an unoptimized version (increasing runtime by up to 20%).
	In order to optimize this model you have the following options:
		(i)  Run the genAutoExamplesWhitelist.sh script in your LIGGGHTS(R) source folder to automatically parse the input script
		(ii) Add the model combination by hand to your style_contact_model_user.whitelist that can be found in your LIGGGHTS(R) source folder
		(iii) Use the ENABLE_MODEL_* flag when building with cmake.
	If you perform one of the steps above LIGGGHTS(R) needs to be recompiled to generate the optimized code.

 (../contact_models.h:365)

Reading STL file '../../../../../templates/meshes/catch_disk_r0.030.stl' (mesh processing step 1/3) 
Fix particledistribution/discrete (id pdd1): distribution based on mass%:
    pts1: d=3.400000e-03 (max. bounding sphere) mass%=25.000000%
    pts2: d=3.700000e-03 (max. bounding sphere) mass%=50.000000%
    pts3: d=4.000000e-03 (max. bounding sphere) mass%=25.000000%
Fix particledistribution/discrete (id pdd1): distribution based on number%:
    pts1: d=3.400000e-03 (max. bounding sphere) number%=31.585425%
    pts2: d=3.700000e-03 (max. bounding sphere) number%=49.017177%
    pts3: d=4.000000e-03 (max. bounding sphere) number%=19.397399%
Setting up run at Fri Jun 12 15:48:37 2026

Import and parallelization of mesh cyl containing 96 triangle(s) successful
Import and parallelization of mesh floor containing 96 triangle(s) successful
Import and parallelization of mesh plug containing 48 triangle(s) successful
Import and parallelization of mesh catch containing 48 triangle(s) successful
INFO: Resetting random generator for region bc
INFO: Particle insertion ins: inserting every 0 steps
Memory usage per processor = 15.7366 Mbytes
    Step    Atoms         KinEng          ms[1]          ts[1]          ts[2] 
       0        0              0              0              0              0 
insertion: proc 0 at 0 %
insertion: proc 1 at 0 %
insertion: proc 0 at 10 %
insertion: proc 1 at 10 %
insertion: proc 0 at 20 %
insertion: proc 1 at 20 %
insertion: proc 0 at 30 %
insertion: proc 1 at 30 %
insertion: proc 0 at 40 %
insertion: proc 1 at 40 %
insertion: proc 0 at 50 %
insertion: proc 1 at 50 %
insertion: proc 0 at 60 %
insertion: proc 1 at 60 %
insertion: proc 1 at 70 %
insertion: proc 0 at 70 %
insertion: proc 1 at 80 %
insertion: proc 0 at 80 %
insertion: proc 0 at 90 %
insertion: proc 1 at 90 %
INFO: Particle insertion ins: inserted 4000 particle templates (mass 1.456074e-01) at step 1
 - a total of 4000 particle templates (mass 1.456074e-01) inserted so far.
    1000     4000    0.010426758              0    0.073452075    0.020600207 
    2000     4000    0.014002198              0    0.073452075    0.021502543 
    3000     4000    0.016922799              0    0.073452075    0.022080444 
    4000     4000    0.019350881              0    0.073452075    0.022743809 
    5000     4000    0.020163386              0    0.073452075    0.023254196 
    6000     4000    0.018865676              0    0.073452075     0.02376484 
    7000     4000    0.014625002              0    0.073452075     0.02452305 
    8000     4000   0.0068340885              0    0.073452075    0.024658264 
    9000     4000  0.00080703299              0    0.073452075    0.023730962 
   10000     4000  0.00021857585              0    0.073452075    0.020905439 
   11000     4000  8.8047435e-05              0    0.073452075    0.020310789 
   12000     4000  4.2238055e-05              0    0.073452075    0.018954772 
   13000     4000   1.881542e-05              0    0.073452075    0.017997576 
   14000     4000  9.6019665e-06              0    0.073452075    0.017832686 
   15000     4000  5.8434061e-06              0    0.073452075    0.018246454 
   16000     4000  3.3909472e-06              0    0.073452075    0.016711524 
   17000     4000  2.0274789e-06              0    0.073452075    0.016807367 
   18000     4000  1.9296823e-06              0    0.073452075     0.01724626 
   19000     4000  1.3188544e-06              0    0.073452075     0.01549799 
   20000     4000  1.1731291e-06              0    0.073452075    0.017216876 
   21000     4000  8.0263988e-07              0    0.073452075    0.016639296 
   22000     4000  7.7402025e-07              0    0.073452075    0.015628316 
   23000     4000  3.2093935e-07              0    0.073452075    0.014123822 
   24000     4000  3.8852833e-07              0    0.073452075    0.015580619 
   25000     4000  3.6149686e-07              0    0.073452075    0.015354677 
   26000     4000  1.6493219e-07              0    0.073452075    0.013522588 
   27000     4000   9.944849e-08              0    0.073452075    0.013883139 
   28000     4000  5.6011798e-08              0    0.073452075    0.012253379 
   29000     4000  4.5914528e-08              0    0.073452075    0.012904295 
   30000     4000  7.6834537e-08              0    0.073452075    0.013776157 
   31000     4000  9.5752553e-08              0    0.073452075    0.014772206 
   32000     4000  1.9976681e-08              0    0.073452075    0.012328656 
   33000     4000  7.1738909e-09              0    0.073452075    0.010594695 
   34000     4000  1.5875388e-09              0    0.073452075   0.0092779933 
   35000     4000  5.4231736e-10              0    0.073452075   0.0080968125 
   36000     4000  4.0471032e-10              0    0.073452075   0.0080882546 
   37000     4000  2.7690712e-10              0    0.073452075   0.0080426833 
   38000     4000  2.4212191e-10              0    0.073452075   0.0079492261 
   39000     4000  2.3082126e-10              0    0.073452075   0.0078055932 
   40000     4000  1.5097538e-10              0    0.073452075   0.0076144647 
   41000     4000  1.1788112e-10              0    0.073452075   0.0073441302 
   42000     4000  8.6314597e-11              0    0.073452075   0.0069834063 
   43000     4000   4.351794e-11              0    0.073452075   0.0064802628 
   44000     4000  2.1390843e-11              0    0.073452075   0.0056736045 
   45000     4000  2.0010483e-11              0    0.073452075   0.0055557014 
   46000     4000  1.8524921e-11              0    0.073452075   0.0052924054 
   47000     4000  8.4696841e-12              0    0.073452075   0.0049561338 
   48000     4000  1.2172741e-11              0    0.073452075   0.0050956087 
   49000     4000  1.4310028e-11              0    0.073452075   0.0055477441 
   50000     4000  7.0130532e-12              0    0.073452075   0.0051988676 
Loop time of 28.6081 on 2 procs for 50000 steps with 4000 atoms, finish time Fri Jun 12 15:49:06 2026


Pair  time (%) = 16.3942 (57.3063)
Neigh time (%) = 0.102182 (0.357179)
Comm  time (%) = 0.559014 (1.95404)
Outpt time (%) = 0.0094015 (0.0328631)
Other time (%) = 11.5433 (40.3496)

Nlocal:    2000 ave 2003 max 1997 min
Histogram: 1 0 0 0 0 0 0 0 0 1
Nghost:    380 ave 386 max 374 min
Histogram: 1 0 0 0 0 0 0 0 0 1
Neighs:    13717.5 ave 13730 max 13705 min
Histogram: 1 0 0 0 0 0 0 0 0 1

Total # of neighbors = 27435
Ave neighs/atom = 6.85875
Neighbor list builds = 70
Dangerous builds = 0
AUDIT settle: atoms = 4000 (target 4000)
Setting up run at Fri Jun 12 15:49:06 2026

Memory usage per processor = 21.1367 Mbytes
    Step    Atoms         KinEng          ms[1]          ts[1]          ts[2] 
   50000     4000  7.0130532e-12              0    0.073452075   0.0051988676 
   51000     4000  2.8061003e-05              0    0.073452075    0.019929454 
   52000     4000   3.583472e-05              0    0.073452075    0.020335462 
   53000     4000  5.1402176e-05              0    0.073452075    0.020791014 
   54000     4000  8.4562155e-05              0    0.073452075     0.02117004 
   55000     4000  0.00013304939              0    0.073452075    0.021535291 
   56000     4000    0.000193975              0    0.073452075    0.021980934 
   57000     4000  0.00026893683              0    0.073452075    0.022603647 
   58000     4000    0.000367358              0    0.073452075    0.023164476 
   59000     4000  0.00048818983              0    0.073452075     0.02367574 
   60000     3985  0.00046193329  0.00049186942    0.073452075    0.024089036 
   61000     3974  0.00043211953  0.00091155437    0.073452075    0.024184783 
   61250     3973   0.0004490047  0.00099559941    0.073452075    0.024184783 
Loop time of 7.61317 on 2 procs for 11250 steps with 3973 atoms, finish time Fri Jun 12 15:49:13 2026


Pair  time (%) = 4.41872 (58.0405)
Neigh time (%) = 0.0867895 (1.13999)
Comm  time (%) = 0.141886 (1.86369)
Outpt time (%) = 0.000362 (0.00475492)
Other time (%) = 2.96541 (38.9511)

Nlocal:    1986.5 ave 1987 max 1986 min
Histogram: 1 0 0 0 0 0 0 0 0 1
Nghost:    378.5 ave 384 max 373 min
Histogram: 1 0 0 0 0 0 0 0 0 1
Neighs:    13360 ave 13382 max 13338 min
Histogram: 1 0 0 0 0 0 0 0 0 1

Total # of neighbors = 26720
Ave neighs/atom = 6.7254
Neighbor list builds = 53
Dangerous builds = 0
Setting up run at Fri Jun 12 15:49:13 2026

Memory usage per processor = 21.1366 Mbytes
    Step    Atoms         KinEng          ms[1]          ts[1]          ts[2] 
   61250     3973   0.0004490047  0.00099559941    0.073452075    0.024184783 
   62000     3964  0.00041343631   0.0012955733    0.073452075    0.024090256 
   63000     3958  0.00045179686   0.0015500974    0.073452075    0.024233183 
   64000     3945  0.00038534483   0.0020748597    0.073452075    0.024368073 
   65000     3937   0.0003741964   0.0023635852    0.073452075    0.024419263 
   66000     3927  0.00033676129   0.0026659481    0.073452075    0.024132209 
   67000     3923  0.00040014791   0.0028076158    0.073452075    0.024210175 
   68000     3919  0.00046305409   0.0029478189    0.073452075    0.024490393 
   69000     3914  0.00049534259   0.0031818509    0.073452075    0.024323633 
   70000     3908  0.00053433193   0.0033689685    0.073452075    0.024344539 
   71000     3897  0.00051028001   0.0037636956    0.073452075    0.024463515 
   72000     3887  0.00050469203   0.0041222166    0.073452075    0.024720643 
   73000     3881  0.00054772778   0.0043010149    0.073452075    0.024369614 
   74000     3875  0.00060938606   0.0045169438    0.073452075    0.024458468 
   75000     3867  0.00063965632   0.0048359452    0.073452075    0.024660651 
   76000     3855  0.00058908276   0.0052570948    0.073452075     0.02472458 
   77000     3847  0.00059443462   0.0055775608    0.073452075    0.024463316 
   78000     3839  0.00059178645   0.0059253735    0.073452075    0.024694239 
   79000     3826  0.00052261116   0.0062912894    0.073452075    0.024502463 
   80000     3823   0.0006195108    0.006468623    0.073452075    0.024550886 
   81000     3816   0.0006588694   0.0066762327    0.073452075     0.02463233 
   82000     3804  0.00063232543   0.0071437564    0.073452075    0.024452341 
   83000     3793  0.00061270148   0.0075399482    0.073452075    0.024595661 
   84000     3779  0.00056278132   0.0079703414    0.073452075    0.024467422 
   85000     3770  0.00060616775   0.0082643851    0.073452075     0.02448296 
   86000     3763  0.00065302383   0.0086210573    0.073452075    0.024700449 
   87000     3756  0.00069555025   0.0088643329    0.073452075    0.024544382 
   88000     3740  0.00059216999   0.0094066581    0.073452075    0.024344884 
   89000     3729  0.00058885028   0.0098580836    0.073452075    0.024489653 
   90000     3723  0.00063989698    0.010063304    0.073452075    0.024366125 
   91000     3716  0.00066594646    0.010342786    0.073452075    0.024345867 
   92000     3706  0.00065352027    0.010790358    0.073452075    0.024376087 
   93000     3696  0.00064073569    0.011166058    0.073452075    0.024446977 
   94000     3682  0.00059128876    0.011673641    0.073452075    0.024461627 
   95000     3672  0.00060666001    0.012014599    0.073452075    0.024429816 
   96000     3664  0.00062265449    0.012322893    0.073452075    0.024313427 
   97000     3651  0.00059962076    0.012764534    0.073452075     0.02452262 
   98000     3638  0.00055408772       0.013298    0.073452075    0.024349524 
   99000     3629  0.00056613031    0.013635104    0.073452075    0.024430101 
  100000     3620  0.00059298087    0.013861742    0.073452075    0.024428829 
  101000     3612  0.00061212483    0.014135293    0.073452075    0.024398374 
  102000     3602   0.0006125632    0.014557907    0.073452075    0.024396526 
  103000     3591  0.00062630862    0.014914039    0.073452075    0.024426151 
  104000     3581  0.00062931815    0.015271636    0.073452075    0.024308997 
  105000     3573  0.00065396226     0.01561167    0.073452075    0.024616805 
  106000     3561   0.0006455253      0.0160557    0.073452075    0.024580289 
  107000     3546  0.00055805611    0.016516369    0.073452075    0.024575781 
  108000     3537  0.00057488973    0.016862717    0.073452075    0.024494997 
  109000     3525  0.00055135033    0.017284791    0.073452075    0.024447008 
  110000     3516  0.00054936072    0.017583301    0.073452075    0.024519644 
  111000     3509  0.00057585055    0.017828041    0.073452075    0.024502407 
  112000     3497  0.00053712392    0.018268218    0.073452075    0.024603839 
  113000     3490  0.00054676696    0.018606787    0.073452075    0.024525358 
  114000     3479  0.00048326983    0.018970314    0.073452075    0.024633972 
  115000     3472  0.00049074795    0.019252185    0.073452075    0.024606719 
  116000     3463   0.0004811669    0.019628809    0.073452075    0.024595911 
  117000     3453  0.00047264874     0.01986523    0.073452075    0.024678459 
  118000     3444  0.00046004211    0.020228216    0.073452075     0.02451909 
  119000     3440  0.00052280587    0.020359176    0.073452075    0.024535463 
  120000     3433  0.00051671292    0.020628874    0.073452075    0.024483187 
  121000     3428  0.00055566867    0.020789569    0.073452075    0.024399806 
  122000     3423  0.00061672712    0.021022136    0.073452075    0.024356891 
  123000     3414  0.00063022601    0.021386588    0.073452075    0.024425775 
  124000     3401  0.00060078647    0.021838013    0.073452075    0.024442681 
  125000     3391  0.00059415332    0.022238671    0.073452075     0.02449641 
  126000     3382  0.00059637022    0.022538645    0.073452075    0.024491397 
  127000     3371  0.00058921649    0.022959794    0.073452075    0.024502825 
  128000     3360  0.00061196474    0.023346202    0.073452075    0.024296347 
  129000     3351  0.00065746399    0.023690161    0.073452075    0.024278896 
  130000     3344  0.00068522926    0.023944685    0.073452075    0.024325561 
  131000     3335  0.00069886829    0.024274935    0.073452075    0.024406809 
  132000     3322  0.00068099619    0.024737069    0.073452075     0.02440834 
  133000     3312  0.00069063891    0.025168927    0.073452075    0.024510796 
  134000     3297  0.00059348096    0.025693689    0.073452075    0.024441687 
  135000     3288  0.00061338303    0.026032258    0.073452075    0.024498233 
  136000     3281  0.00070155149    0.026380071    0.073452075     0.02441921 
  137000     3269  0.00067593849    0.026733814    0.073452075    0.024472701 
  138000     3257  0.00067468661     0.02718231    0.073452075    0.024387419 
  139000     3243   0.0006416214    0.027698213    0.073452075    0.024458994 
  140000     3235  0.00068404553    0.028007431    0.073452075    0.024483991 
  141000     3225  0.00071255299    0.028373346    0.073452075    0.024579529 
  142000     3214  0.00070853018    0.028769538    0.073452075    0.024441892 
  143000     3205  0.00073726391    0.029146162    0.073452075    0.024439755 
  144000     3189   0.0006666839    0.029678704    0.073452075    0.024666915 
  145000     3176  0.00063076193    0.030113491    0.073452075    0.024499877 
  146000     3166  0.00062405748    0.030527786    0.073452075    0.024731087 
  147000     3157  0.00061511911    0.030967963    0.073452075    0.024580486 
  148000     3142  0.00051008162    0.031528391    0.073452075    0.024645653 
  149000     3133  0.00047458064    0.031742855    0.073452075    0.024559082 
  150000     3126  0.00047420057    0.032061857    0.073452075    0.024473558 
  151000     3116  0.00043788882    0.032400426    0.073452075    0.024449794 
  152000     3111   0.0004788381    0.032624674    0.073452075    0.024456509 
  153000     3105  0.00050137037    0.032793688    0.073452075    0.024303531 
  154000     3096  0.00049843291     0.03311269    0.073452075      0.0243729 
  155000     3086   0.0004693852    0.033460502    0.073452075    0.024401452 
  156000     3076  0.00044881387    0.033797607    0.073452075    0.024338997 
  157000     3071  0.00050784743    0.033958302    0.073452075    0.024340676 
  158000     3065  0.00054256247    0.034193799    0.073452075    0.024248118 
  159000     3049  0.00047593572    0.034749221    0.073452075    0.024289957 
  160000     3040  0.00045604155    0.035104429    0.073452075    0.024366138 
  161000     3034  0.00047800319     0.03534678    0.073452075    0.024400238 
  162000     3025  0.00045154873    0.035701988    0.073452075    0.024420883 
  163000     3016  0.00045404433     0.03601267    0.073452075    0.024342667 
  164000     3006  0.00043154376    0.036381515    0.073452075    0.024355314 
  165000     2998  0.00045607884    0.036682413    0.073452075    0.024266021 
  166000     2995  0.00055844808    0.036822616    0.073452075    0.024540849 
  167000     2987  0.00060771606    0.037067356    0.073452075    0.024467368 
  168000     2981   0.0006935951    0.037254474    0.073452075     0.02433868 
  169000     2969  0.00066209213     0.03770297    0.073452075    0.024559296 
  170000     2959  0.00067367543    0.038106017    0.073452075    0.024405024 
  171000     2945  0.00061337753    0.038658126    0.073452075    0.024428239 
  172000     2937  0.00063707559    0.039015722    0.073452075    0.024552063 
  173000     2922   0.0005561155    0.039455899    0.073452075     0.02465446 
  174000     2915  0.00058062013    0.039708959    0.073452075    0.024507068 
  175000     2905  0.00055971899    0.040084659    0.073452075    0.024608301 
  176000     2899  0.00061685317    0.040310371    0.073452075    0.024398877 
  177000     2888  0.00063415771    0.040696779    0.073452075    0.024387351 
  178000     2876  0.00061913934    0.041156524    0.073452075     0.02435753 
  179000     2866  0.00060932451    0.041587457    0.073452075    0.024297302 
  180000     2856  0.00063323525    0.041945054    0.073452075     0.02445538 
  181000     2848  0.00067527679     0.04218833    0.073452075    0.024451119 
  182000     2838  0.00071229052    0.042574738    0.073452075    0.024411257 
  183000     2828  0.00072739501    0.043006595    0.073452075    0.024533971 
  184000     2812   0.0006756545    0.043551309    0.073452075     0.02438178 
  185000     2800  0.00065373609     0.04396414    0.073452075    0.024537088 
  186000     2788   0.0006406248    0.044322661    0.073452075    0.024407516 
  187000     2777  0.00063450942    0.044706139    0.073452075    0.024533932 
  188000     2763  0.00057254166    0.045250854    0.073452075    0.024631519 
  189000     2755  0.00055519597    0.045560611    0.073452075    0.024373558 
  190000     2745  0.00052194124    0.045915819    0.073452075    0.024405127 
  191000     2738  0.00054518595    0.046290054    0.073452075    0.024498577 
  192000     2728  0.00052628991    0.046516691    0.073452075    0.024553237 
  193000     2718  0.00050619391    0.046893315    0.073452075    0.024450982 
  194000     2708  0.00048486138    0.047269015    0.073452075    0.024530506 
  195000     2699  0.00046475264     0.04760612    0.073452075    0.024377704 
  196000     2691  0.00046007197    0.047914413    0.073452075    0.024511639 
  197000     2686  0.00051095573    0.048093211    0.073452075    0.024498005 
  198000     2677  0.00052248977    0.048449343    0.073452075      0.0242142 
  199000     2669  0.00053886451    0.048749317    0.073452075    0.024421968 
  200000     2658  0.00051031858    0.049094741    0.073452075    0.024145725 
  201000     2652  0.00053720859    0.049346876    0.073452075    0.024304473 
  202000     2642  0.00054697852     0.04967805    0.073452075    0.024354962 
  203000     2627  0.00049558561    0.050203197    0.073452075    0.024432646 
  204000     2618  0.00049637979    0.050522198    0.073452075    0.024416531 
  205000     2609  0.00049626822    0.050859302    0.073452075    0.024329732 
  206000     2602  0.00052495169    0.051120681    0.073452075    0.024416141 
  207000     2595  0.00057358761    0.051365421    0.073452075    0.024241078 
  208000     2585  0.00059779721     0.05171177    0.073452075    0.024448939 
  209000     2575  0.00062154016    0.052076221    0.073452075    0.024319443 
  210000     2560  0.00054505727    0.052648822    0.073452075    0.024489816 
  211000     2554  0.00059163332    0.052881389    0.073452075    0.024405971 
  212000     2548  0.00066126221    0.053154016    0.073452075    0.024293996 
  213000     2534   0.0006221008    0.053690411    0.073452075    0.024318226 
  214000     2520  0.00057693959    0.054149616    0.073452075    0.024458465 
  215000     2509   0.0005652871    0.054505748    0.073452075    0.024426973 
  216000     2500  0.00055372321    0.054852636    0.073452075    0.024428271 
  217000     2493  0.00058942681    0.055173102    0.073452075    0.024436201 
  218000     2483  0.00057901596    0.055499499    0.073452075    0.024379987 
  219000     2473  0.00055982839    0.055957779    0.073452075    0.024492559 
  220000     2460  0.00050328114    0.056359361    0.073452075    0.024367185 
  221000     2452   0.0005184656    0.056698854    0.073452075    0.024432957 
  222000     2442  0.00050442506    0.057008072    0.073452075    0.024262966 
  223000     2433  0.00051234095    0.057289942    0.073452075    0.024349381 
  224000     2424  0.00050970701    0.057712557    0.073452075    0.024422843 
  225000     2416  0.00051632799    0.057938269    0.073452075    0.024383104 
Loop time of 87.3827 on 2 procs for 163750 steps with 2416 atoms, finish time Fri Jun 12 15:50:41 2026


Pair  time (%) = 47.4077 (54.253)
Neigh time (%) = 1.47516 (1.68816)
Comm  time (%) = 1.72957 (1.97931)
Outpt time (%) = 0.0230545 (0.0263834)
Other time (%) = 36.7472 (42.0531)

Nlocal:    1208 ave 1215 max 1201 min
Histogram: 1 0 0 0 0 0 0 0 0 1
Nghost:    194 ave 194 max 194 min
Histogram: 2 0 0 0 0 0 0 0 0 0
Neighs:    7404 ave 7434 max 7374 min
Histogram: 1 0 0 0 0 0 0 0 0 1

Total # of neighbors = 14808
Ave neighs/atom = 6.12914
Neighbor list builds = 1158
Dangerous builds = 0
AUDIT discharge-end: crossed mass = 0.0579382692793644 kg, atoms left = 2416
