LIGGGHTS (Version LIGGGHTS-PUBLIC 3.8.0, compiled 2026-06-11-14:52:41 by joshuamayo, git commit 3d5c00f20519e6bb6eb6756f51f1ad36564e649d)
Created orthogonal box = (-0.14 -0.14 0) to (0.14 0.14 0.2)
  1 by 2 by 1 MPI processor grid
WARNING: 
	The contact model you specified is not located in any whitelist.
	Because of this the model will be run in an unoptimized version (increasing runtime by up to 20%).
	In order to optimize this model you have the following options:
		(i)  Run the genAutoExamplesWhitelist.sh script in your LIGGGHTS(R) source folder to automatically parse the input script
		(ii) Add the model combination by hand to your style_contact_model_user.whitelist that can be found in your LIGGGHTS(R) source folder
		(iii) Use the ENABLE_MODEL_* flag when building with cmake.
	If you perform one of the steps above LIGGGHTS(R) needs to be recompiled to generate the optimized code.

 (../contact_models.h:365)
WARNING: 
	The contact model you specified is not located in any whitelist.
	Because of this the model will be run in an unoptimized version (increasing runtime by up to 20%).
	In order to optimize this model you have the following options:
		(i)  Run the genAutoExamplesWhitelist.sh script in your LIGGGHTS(R) source folder to automatically parse the input script
		(ii) Add the model combination by hand to your style_contact_model_user.whitelist that can be found in your LIGGGHTS(R) source folder
		(iii) Use the ENABLE_MODEL_* flag when building with cmake.
	If you perform one of the steps above LIGGGHTS(R) needs to be recompiled to generate the optimized code.

 (../contact_models.h:365)
WARNING: 
	The contact model you specified is not located in any whitelist.
	Because of this the model will be run in an unoptimized version (increasing runtime by up to 20%).
	In order to optimize this model you have the following options:
		(i)  Run the genAutoExamplesWhitelist.sh script in your LIGGGHTS(R) source folder to automatically parse the input script
		(ii) Add the model combination by hand to your style_contact_model_user.whitelist that can be found in your LIGGGHTS(R) source folder
		(iii) Use the ENABLE_MODEL_* flag when building with cmake.
	If you perform one of the steps above LIGGGHTS(R) needs to be recompiled to generate the optimized code.

 (../contact_models.h:365)
WARNING: 
	The contact model you specified is not located in any whitelist.
	Because of this the model will be run in an unoptimized version (increasing runtime by up to 20%).
	In order to optimize this model you have the following options:
		(i)  Run the genAutoExamplesWhitelist.sh script in your LIGGGHTS(R) source folder to automatically parse the input script
		(ii) Add the model combination by hand to your style_contact_model_user.whitelist that can be found in your LIGGGHTS(R) source folder
		(iii) Use the ENABLE_MODEL_* flag when building with cmake.
	If you perform one of the steps above LIGGGHTS(R) needs to be recompiled to generate the optimized code.

 (../contact_models.h:365)
WARNING: 
	The contact model you specified is not located in any whitelist.
	Because of this the model will be run in an unoptimized version (increasing runtime by up to 20%).
	In order to optimize this model you have the following options:
		(i)  Run the genAutoExamplesWhitelist.sh script in your LIGGGHTS(R) source folder to automatically parse the input script
		(ii) Add the model combination by hand to your style_contact_model_user.whitelist that can be found in your LIGGGHTS(R) source folder
		(iii) Use the ENABLE_MODEL_* flag when building with cmake.
	If you perform one of the steps above LIGGGHTS(R) needs to be recompiled to generate the optimized code.

 (../contact_models.h:365)
WARNING: 
	The contact model you specified is not located in any whitelist.
	Because of this the model will be run in an unoptimized version (increasing runtime by up to 20%).
	In order to optimize this model you have the following options:
		(i)  Run the genAutoExamplesWhitelist.sh script in your LIGGGHTS(R) source folder to automatically parse the input script
		(ii) Add the model combination by hand to your style_contact_model_user.whitelist that can be found in your LIGGGHTS(R) source folder
		(iii) Use the ENABLE_MODEL_* flag when building with cmake.
	If you perform one of the steps above LIGGGHTS(R) needs to be recompiled to generate the optimized code.

 (../contact_models.h:365)

Reading STL file '../../../templates/meshes/cylinder_r0.040_h0.100.stl' (mesh processing step 1/3) 
WARNING: 
	The contact model you specified is not located in any whitelist.
	Because of this the model will be run in an unoptimized version (increasing runtime by up to 20%).
	In order to optimize this model you have the following options:
		(i)  Run the genAutoExamplesWhitelist.sh script in your LIGGGHTS(R) source folder to automatically parse the input script
		(ii) Add the model combination by hand to your style_contact_model_user.whitelist that can be found in your LIGGGHTS(R) source folder
		(iii) Use the ENABLE_MODEL_* flag when building with cmake.
	If you perform one of the steps above LIGGGHTS(R) needs to be recompiled to generate the optimized code.

 (../contact_models.h:365)
Fix particledistribution/discrete (id pdd1): distribution based on mass%:
    pts1: d=3.400000e-03 (max. bounding sphere) mass%=25.000000%
    pts2: d=3.700000e-03 (max. bounding sphere) mass%=50.000000%
    pts3: d=4.000000e-03 (max. bounding sphere) mass%=25.000000%
Fix particledistribution/discrete (id pdd1): distribution based on number%:
    pts1: d=3.400000e-03 (max. bounding sphere) number%=31.585425%
    pts2: d=3.700000e-03 (max. bounding sphere) number%=49.017177%
    pts3: d=4.000000e-03 (max. bounding sphere) number%=19.397399%
Setting up run at Thu Jun 11 21:18:23 2026

Import and parallelization of mesh cyl containing 96 triangle(s) successful
INFO: Resetting random generator for region bc
INFO: Particle insertion ins: inserting every 0 steps
Memory usage per processor = 10.4417 Mbytes
    Step    Atoms         KinEng            rke          ts[1]          ts[2] 
       0        0              0              0              0              0 
insertion: proc 0 at 0 %
insertion: proc 1 at 0 %
insertion: proc 0 at 10 %
insertion: proc 1 at 10 %
insertion: proc 0 at 20 %
insertion: proc 1 at 20 %
insertion: proc 1 at 30 %
insertion: proc 0 at 30 %
insertion: proc 1 at 40 %
insertion: proc 0 at 40 %
insertion: proc 0 at 50 %
insertion: proc 1 at 50 %
insertion: proc 0 at 60 %
insertion: proc 1 at 60 %
insertion: proc 0 at 70 %
insertion: proc 1 at 70 %
insertion: proc 0 at 80 %
insertion: proc 1 at 80 %
insertion: proc 1 at 90 %
insertion: proc 0 at 90 %
insertion: proc 0 at 100 %
insertion: proc 1 at 100 %
INFO: Particle insertion ins: inserted 4000 particle templates (mass 1.456172e-01) at step 1
 - a total of 4000 particle templates (mass 1.456172e-01) inserted so far.
    2000     4000    0.013801639  4.9405307e-05    0.073452075    0.021426372 
    4000     4000    0.019108753  0.00015788417    0.073452075    0.022692838 
    6000     4000    0.019061067  0.00025172382    0.073452075    0.023910034 
    8000     4000   0.0072968599  0.00036821005    0.073452075    0.024646937 
   10000     4000  0.00023820063  7.3702039e-05    0.073452075    0.021080693 
   12000     4000  4.8718219e-05  1.8559205e-05    0.073452075    0.019835114 
   14000     4000  1.3609319e-05  7.8566514e-06    0.073452075    0.018166877 
   16000     4000  3.5309821e-06  2.7873261e-06    0.073452075    0.015361002 
   18000     4000  2.4236558e-06  1.7138402e-06    0.073452075    0.016927961 
   20000     4000  1.1130919e-06  9.1804262e-07    0.073452075    0.015670013 
   22000     4000  1.0558344e-06  5.5944742e-07    0.073452075     0.01644239 
   24000     4000  2.6960497e-07  2.3123528e-07    0.073452075    0.014551738 
   26000     4000  2.4049083e-07  2.3504536e-07    0.073452075    0.014474998 
   28000     4000  1.1214139e-07  1.3103501e-07    0.073452075    0.013985205 
   30000     4000  7.3020135e-08  7.8991105e-08    0.073452075    0.012779258 
   32000     4000  7.3211763e-08  6.9480177e-08    0.073452075    0.013112117 
   34000     4000  4.5196802e-08   4.277799e-08    0.073452075    0.013051665 
   36000     4000  1.3710537e-08  2.8234007e-08    0.073452075    0.012257697 
   38000     4000  1.2773319e-09  2.1475241e-08    0.073452075   0.0091598312 
   40000     4000   3.071929e-10  2.0594704e-08    0.073452075   0.0060026279 
   42000     4000  7.8890281e-11  1.9936611e-08    0.073452075   0.0057676806 
   44000     4000  9.8042847e-11  1.9448076e-08    0.073452075   0.0057299084 
   46000     4000  1.0137068e-10  1.9265855e-08    0.073452075    0.006051632 
   48000     4000  1.4009041e-10  1.9258896e-08    0.073452075   0.0072753397 
   50000     4000  6.5844696e-10  1.9563653e-08    0.073452075   0.0087318826 
   50001     4000  6.5894177e-10  1.9564388e-08    0.073452075   0.0087318826 
Loop time of 14.6059 on 2 procs for 50001 steps with 4000 atoms, finish time Thu Jun 11 21:18:38 2026


Pair  time (%) = 10.8862 (74.5333)
Neigh time (%) = 0.0847325 (0.580126)
Comm  time (%) = 0.335752 (2.29874)
Outpt time (%) = 0.023796 (0.162921)
Other time (%) = 3.27536 (22.4249)

Nlocal:    2000 ave 2012 max 1988 min
Histogram: 1 0 0 0 0 0 0 0 0 1
Nghost:    381.5 ave 386 max 377 min
Histogram: 1 0 0 0 0 0 0 0 0 1
Neighs:    13829 ave 13952 max 13706 min
Histogram: 1 0 0 0 0 0 0 0 0 1

Total # of neighbors = 27658
Ave neighs/atom = 6.9145
Neighbor list builds = 74
Dangerous builds = 0
AUDIT settle: step 50001  KE = 6.58941768256693e-10 J  (target < 2e-8 J for quasi-static)
Setting up run at Thu Jun 11 21:18:38 2026

Memory usage per processor = 17.4435 Mbytes
    Step    Atoms         KinEng            rke          ts[1]          ts[2] 
   50001     4000  6.5894177e-10  1.9564388e-08    0.073452075   0.0087318826 
   52000     4000  4.4569855e-07  2.9023859e-07    0.073452075    0.013782816 
   54000     4000  1.2503884e-06  4.3740215e-07    0.073452075    0.017574749 
   56000     4000  7.9368746e-07  5.5355238e-07    0.073452075    0.015076347 
   58000     4000  7.5153308e-07  6.8730793e-07    0.073452075    0.015408406 
   60000     4000  1.0350757e-06  8.0402802e-07    0.073452075    0.014932046 
   62000     4000  1.9974408e-06   9.443243e-07    0.073452075    0.016990559 
   64000     4000  8.1880509e-07  6.2691431e-07    0.073452075    0.016219022 
   66000     4000  9.6962713e-07  6.0281335e-07    0.073452075    0.016109212 
   68000     4000  7.6232323e-07  6.8022171e-07    0.073452075    0.015203195 
   70000     4000  8.6843424e-07  6.8319637e-07    0.073452075    0.015876627 
   72000     4000  8.1095195e-07  6.3849357e-07    0.073452075    0.014938867 
   74000     4000  1.0752163e-06  7.1597272e-07    0.073452075    0.015001154 
   76000     4000  8.8330077e-07  6.6194171e-07    0.073452075    0.014913334 
   78000     4000  7.3586458e-07    5.18783e-07    0.073452075    0.014781251 
   80000     4000  9.1667583e-07  5.8830123e-07    0.073452075    0.015771464 
   82000     4000  6.5804143e-07  5.9791184e-07    0.073452075    0.013990805 
   84000     4000  9.1463422e-07  8.0082071e-07    0.073452075    0.014281179 
   86000     4000  1.6693391e-06  8.1282827e-07    0.073452075    0.015764694 
   88000     4000  9.1748149e-07  7.0311192e-07    0.073452075    0.015235908 
   90000     4000  2.2693691e-06  1.0711495e-06    0.073452075    0.016934713 
   92000     4000  1.0307882e-06  9.7798751e-07    0.073452075    0.015437585 
   94000     4000  2.3126778e-06  9.4391353e-07    0.073452075    0.016208971 
   96000     4000  2.0019888e-06  9.4919753e-07    0.073452075    0.018194165 
   98000     4000  1.4536628e-06  8.8912356e-07    0.073452075    0.017033041 
  100000     4000  1.3319068e-06  7.6301985e-07    0.073452075    0.016749543 
  102000     4000  1.2421821e-06  6.9752297e-07    0.073452075    0.016132476 
  104000     4000  2.0783614e-06  6.6766865e-07    0.073452075    0.017616162 
  106000     4000  1.5351088e-06  6.1024058e-07    0.073452075      0.0180859 
  108000     4000  1.8697099e-06  8.3811698e-07    0.073452075    0.016123831 
  110000     4000  2.9419457e-06  1.5144761e-06    0.073452075    0.017064488 
  112000     4000  2.2997804e-06  1.2304943e-06    0.073452075    0.015631964 
  114000     4000  4.3731062e-06  1.9069469e-06    0.073452075    0.018297391 
  116000     4000  3.7906619e-06  1.9392409e-06    0.073452075    0.016299418 
  118000     4000  4.3744975e-06  1.8157508e-06    0.073452075    0.017708746 
  120000     4000  2.9412101e-06  1.6232817e-06    0.073452075    0.015640395 
  122000     4000  4.7315779e-06  1.7151827e-06    0.073452075    0.018024322 
  124000     4000  3.7957891e-06  1.5973438e-06    0.073452075    0.017907405 
  126000     4000  4.4994341e-06  1.8666676e-06    0.073452075    0.017315033 
  128000     4000  3.1730931e-06  1.5829845e-06    0.073452075    0.017723288 
  130000     4000  3.0145104e-06  1.5648704e-06    0.073452075    0.016270061 
  132000     4000   5.407871e-06  1.9479632e-06    0.073452075    0.017834918 
  134000     4000  8.4718267e-06  3.2496982e-06    0.073452075     0.01845516 
  136000     4000  1.2433978e-05  4.1507345e-06    0.073452075    0.017825287 
  138000     4000   1.114878e-05  4.2361525e-06    0.073452075    0.018699867 
  140000     4000  9.6941328e-06  4.2124619e-06    0.073452075    0.017862043 
  142000     4000  8.8834658e-06  3.9912428e-06    0.073452075    0.018132974 
  144000     4000  9.0106301e-06  3.7889559e-06    0.073452075     0.01779494 
  146000     4000  9.9828862e-06  3.7475306e-06    0.073452075    0.018275033 
  148000     4000  9.9921359e-06  4.1681202e-06    0.073452075    0.017972389 
  150000     4000  1.2543714e-05   4.427651e-06    0.073452075    0.018861538 
  152000     4000  1.4371001e-05  4.7966285e-06    0.073452075    0.019295301 
  154000     4000   1.241915e-05   4.468709e-06    0.073452075    0.018329587 
  156000     4000  1.3918831e-05  4.7596964e-06    0.073452075    0.018408139 
  158000     4000  1.6369019e-05   5.440311e-06    0.073452075    0.019675225 
  160000     4000  2.1471524e-05  6.0076041e-06    0.073452075    0.018475578 
  162000     4000  2.3775696e-05  7.2611735e-06    0.073452075    0.018400419 
  164000     4000  2.7586515e-05   8.253049e-06    0.073452075    0.019092427 
  166000     4000  2.3647312e-05  6.9275592e-06    0.073452075    0.018671152 
  168000     4000  2.4773439e-05  6.7070414e-06    0.073452075    0.020175777 
  170000     4000  1.9497011e-05  6.9457376e-06    0.073452075    0.018487477 
  172000     4000  1.5912977e-05  6.3279082e-06    0.073452075    0.018065507 
  174000     4000  1.4341338e-05  6.0238614e-06    0.073452075    0.018023583 
  176000     4000  1.7437901e-05  6.4626855e-06    0.073452075    0.018939142 
  178000     4000  1.9754499e-05  6.7203539e-06    0.073452075    0.018659599 
  180000     4000   2.209333e-05  6.7234146e-06    0.073452075    0.018251402 
  182000     4000  2.3408131e-05  7.7069492e-06    0.073452075    0.018100893 
  184000     4000  2.1245677e-05  7.2689395e-06    0.073452075    0.018318606 
  186000     4000   2.502274e-05  7.6936581e-06    0.073452075    0.019477972 
  188000     4000  2.8264841e-05  7.9111252e-06    0.073452075    0.019143576 
  190000     4000  2.2189392e-05  6.7235095e-06    0.073452075    0.019401993 
  192000     4000  2.6343465e-05  7.7739105e-06    0.073452075    0.018699525 
  194000     4000  2.9993774e-05  9.0613159e-06    0.073452075    0.019184337 
  196000     4000  2.8140461e-05   9.427925e-06    0.073452075    0.018971583 
  198000     4000  2.9528756e-05  8.6698282e-06    0.073452075    0.018380039 
  200000     4000  3.8203754e-05  9.5508505e-06    0.073452075    0.019378855 
  202000     4000  4.0540079e-05  1.1123767e-05    0.073452075    0.018367647 
  204000     4000  3.7044262e-05  1.1388008e-05    0.073452075    0.020033896 
  206000     4000  3.8206896e-05  1.1253227e-05    0.073452075    0.018811125 
  208000     4000   3.974903e-05  1.2153046e-05    0.073452075    0.018664698 
  210000     4000  4.4289008e-05  1.1421677e-05    0.073452075    0.018536824 
  212000     4000  5.3459052e-05  1.3214934e-05    0.073452075    0.019371653 
  214000     4000  4.7594803e-05  1.3286298e-05    0.073452075    0.019189644 
  216000     4000  4.8312078e-05  1.3277016e-05    0.073452075    0.019712734 
  218000     4000  5.6487989e-05  1.4331894e-05    0.073452075    0.018974907 
  220000     4000  4.7967909e-05   1.463441e-05    0.073452075    0.018358402 
  222000     4000  4.9827422e-05  1.5405936e-05    0.073452075    0.019234416 
  224000     4000  5.0806816e-05  1.3555892e-05    0.073452075     0.01906882 
  226000     4000  3.9651107e-05  1.1529948e-05    0.073452075    0.018202948 
  228000     4000  4.5738752e-05  1.1629334e-05    0.073452075    0.018705727 
  230000     4000  5.6758542e-05  1.3700619e-05    0.073452075    0.018308498 
  232000     4000  5.3028859e-05  1.3013389e-05    0.073452075     0.01965884 
  234000     4000  4.7254859e-05  1.1787495e-05    0.073452075     0.01908655 
  236000     4000  4.2864815e-05  1.1474502e-05    0.073452075    0.018874369 
  238000     4000  5.1588419e-05  1.2535607e-05    0.073452075    0.019955668 
  240000     4000  5.8878475e-05  1.3375416e-05    0.073452075    0.018987892 
  242000     4000  6.5799049e-05  1.4522788e-05    0.073452075    0.019654949 
  244000     4000     6.4089e-05  1.5614043e-05    0.073452075    0.019459784 
  246000     4000  6.9626393e-05  1.6050873e-05    0.073452075    0.018596627 
  248000     4000  6.7376139e-05  1.4790518e-05    0.073452075     0.01934757 
  250000     4000  6.0706451e-05  1.4220801e-05    0.073452075    0.019315303 
  252000     4000  6.7501411e-05  1.5265239e-05    0.073452075    0.019338544 
  254000     4000  7.8833285e-05  1.6938931e-05    0.073452075    0.019300004 
  256000     4000  8.1532576e-05  1.7587401e-05    0.073452075    0.019112255 
  258000     4000   7.264382e-05   1.631741e-05    0.073452075    0.019207623 
  260000     4000  6.3596793e-05   1.500952e-05    0.073452075    0.018684449 
  262000     4000   5.561914e-05  1.4523915e-05    0.073452075    0.019055843 
  264000     4000  5.9587965e-05  1.5212213e-05    0.073452075    0.018486373 
  266000     4000   5.715028e-05  1.4065587e-05    0.073452075    0.020259091 
  268000     4000  5.3875538e-05  1.4131031e-05    0.073452075    0.019201052 
  270000     4000  5.2951482e-05  1.4367409e-05    0.073452075     0.01916983 
  272000     4000  5.9824109e-05  1.4100748e-05    0.073452075    0.020068656 
  274000     4000  5.2186932e-05  1.3583076e-05    0.073452075    0.019068005 
  276000     4000  5.4170439e-05   1.452128e-05    0.073452075    0.019087765 
  278000     4000  5.6345234e-05   1.434124e-05    0.073452075    0.018693883 
  280000     4000  5.7905753e-05  1.5469802e-05    0.073452075     0.01933443 
  282000     4000  5.9626866e-05   1.440887e-05    0.073452075    0.019017703 
  284000     4000  7.2375449e-05  1.5467292e-05    0.073452075    0.019096805 
  286000     4000  7.3534099e-05  1.5680388e-05    0.073452075     0.01940192 
  288000     4000  6.2516327e-05  1.4913395e-05    0.073452075    0.019070363 
  290000     4000  6.8152038e-05  1.5475309e-05    0.073452075    0.018993732 
  292000     4000  6.7756523e-05  1.6072374e-05    0.073452075    0.019533885 
  294000     4000  7.1641864e-05  1.6932935e-05    0.073452075     0.01945496 
  296000     4000  7.4942725e-05  1.6907387e-05    0.073452075    0.018668441 
  298000     4000  8.5399938e-05  1.7406169e-05    0.073452075    0.018651385 
  300000     4000   9.215861e-05  1.9500543e-05    0.073452075    0.018825371 
  302000     4000  9.3641375e-05   2.006802e-05    0.073452075     0.01843061 
  304000     4000  9.2112189e-05  1.8854642e-05    0.073452075      0.0194746 
  306000     4000  9.6011787e-05  1.9552435e-05    0.073452075    0.019764335 
  308000     4000   9.025535e-05  1.8693239e-05    0.073452075    0.019086167 
  310000     4000  8.9647798e-05  1.8254811e-05    0.073452075    0.019011036 
  312000     4000   8.044981e-05  1.7836372e-05    0.073452075    0.018219792 
  314000     4000  7.8788875e-05  1.7444995e-05    0.073452075    0.019556574 
  316000     4000  6.3305583e-05   1.606499e-05    0.073452075    0.018129338 
  318000     4000  5.1007554e-05  1.4727346e-05    0.073452075    0.018969306 
  320000     4000  4.4563625e-05  1.2687347e-05    0.073452075    0.018706653 
  322000     4000  3.6181614e-05  1.0923649e-05    0.073452075    0.018011618 
  324000     4000    2.94843e-05  9.7084932e-06    0.073452075    0.018373415 
  326000     4000  2.0259962e-05  7.1147997e-06    0.073452075    0.017383665 
  328000     4000  1.6874412e-05  6.8228359e-06    0.073452075    0.018017323 
  330000     4000  1.5586705e-05  5.8576659e-06    0.073452075    0.018333428 
  332000     4000  1.4024794e-05  4.6927003e-06    0.073452075    0.020105177 
  334000     4000  8.2295817e-06  3.8436829e-06    0.073452075    0.016827859 
  336000     4000  6.6919904e-06  3.4460893e-06    0.073452075    0.017857284 
  338000     4000  4.2080866e-06  2.1994851e-06    0.073452075    0.017483747 
  340000     4000  3.5183873e-06  1.7138831e-06    0.073452075      0.0185737 
  342000     4000   2.845544e-06  1.3267725e-06    0.073452075    0.017656626 
  344000     4000   2.026022e-06  1.2372585e-06    0.073452075    0.016654918 
  346000     4000  1.6700233e-06  8.8477403e-07    0.073452075     0.01718813 
  348000     4000  1.0698854e-06  7.0317545e-07    0.073452075    0.017071545 
  350000     4000  6.9299228e-07  5.1240713e-07    0.073452075    0.016613725 
  352000     4000  9.3852655e-07  6.4238937e-07    0.073452075    0.017319881 
  354000     4000  1.0023946e-06  5.6221641e-07    0.073452075    0.017650208 
  356000     4000  1.5543774e-06  4.3433975e-07    0.073452075    0.019523808 
  358000     4000  4.0422409e-07  3.1887293e-07    0.073452075    0.016327682 
  360000     4000   5.999733e-07  3.2278352e-07    0.073452075    0.017187325 
  362000     4000  6.6867274e-07  3.4305928e-07    0.073452075    0.017609871 
  364000     4000  1.5058151e-06  3.2876759e-07    0.073452075     0.01935468 
  366000     4000  3.4495041e-07  2.2467976e-07    0.073452075    0.016510865 
  368000     4000  2.7231927e-07  1.8106604e-07    0.073452075    0.016193201 
  370000     4000  1.0552988e-07  9.2947254e-08    0.073452075     0.01424038 
  372000     4000   4.379969e-08  9.3517287e-08    0.073452075    0.013148673 
  374000     4000  1.7546956e-08  8.3032605e-08    0.073452075    0.012116173 
  376000     4000  3.2645714e-09  7.7316038e-08    0.073452075    0.010525883 
  378000     4000   6.219358e-12  7.6008945e-08    0.073452075   0.0087150907 
  380000     4000  1.9839498e-12  7.6011466e-08    0.073452075    0.008686494 
  382000     4000  2.7456178e-12  7.6011083e-08    0.073452075   0.0086853644 
  384000     4000  1.5657162e-12  7.6008241e-08    0.073452075   0.0086852499 
  386000     4000  1.2867525e-12  7.6009282e-08    0.073452075   0.0086850417 
  388000     4000  1.1081621e-12  7.6009287e-08    0.073452075    0.008683499 
  390000     4000  7.5020036e-13  7.6007319e-08    0.073452075   0.0086811085 
  392000     4000  9.0015218e-13  7.6009652e-08    0.073452075   0.0086794818 
  394000     4000  4.2598919e-13  7.6008776e-08    0.073452075   0.0086773459 
  396000     4000  5.8167577e-13  7.6005856e-08    0.073452075   0.0086772028 
  398000     4000  2.8589906e-13  7.6008739e-08    0.073452075   0.0086786753 
  400000     4000  4.5299454e-13  7.6008771e-08    0.073452075   0.0086780817 
  402000     4000  1.5758906e-13  7.6005809e-08    0.073452075   0.0086773038 
  404000     4000  3.9247887e-13  7.6008442e-08    0.073452075   0.0086777444 
  406000     4000  1.8323935e-13  7.6009147e-08    0.073452075   0.0086776893 
  408000     4000  2.4393766e-13  7.6006199e-08    0.073452075    0.008679371 
  410000     4000  1.4148176e-13  7.6007213e-08    0.073452075   0.0086803676 
  412000     4000  2.2391989e-13  7.6009319e-08    0.073452075   0.0086809367 
  414000     4000  1.7822035e-13  7.6007191e-08    0.073452075   0.0086814259 
  416000     4000  1.7062886e-13  7.6007285e-08    0.073452075   0.0086816434 
  418000     4000  1.2457294e-13  7.6008388e-08    0.073452075   0.0086812945 
  420000     4000  1.4939465e-13  7.6006583e-08    0.073452075   0.0086805637 
  422000     4000  1.2832216e-13  7.6006876e-08    0.073452075   0.0086796925 
  424000     4000  9.9380196e-14  7.6008842e-08    0.073452075   0.0086786385 
  426000     4000  7.1141174e-14  7.6006102e-08    0.073452075    0.008677278 
  428000     4000  6.9608447e-14   7.600597e-08    0.073452075   0.0086757113 
  430000     4000  6.1260599e-14  7.6008095e-08    0.073452075   0.0086755671 
  432000     4000  4.9946326e-14  7.6006214e-08    0.073452075   0.0086749118 
  434000     4000  3.6999108e-14  7.6005492e-08    0.073452075   0.0086746255 
  436000     4000    4.27059e-14  7.6007992e-08    0.073452075   0.0086745226 
  438000     4000  4.7406788e-14  7.6006263e-08    0.073452075   0.0086749937 
  440000     4000  4.4969767e-14  7.6004997e-08    0.073452075   0.0086749648 
  442000     4000  3.9918617e-14  7.6007478e-08    0.073452075   0.0086759949 
  444000     4000  4.3731444e-14  7.6006664e-08    0.073452075   0.0086768505 
  446000     4000  5.4200113e-14  7.6005039e-08    0.073452075   0.0086774305 
  448000     4000  4.6828793e-14  7.6007454e-08    0.073452075   0.0086777394 
  450000     4000  4.0932429e-14  7.6006419e-08    0.073452075   0.0086778288 
  452000     4000  4.0521539e-14  7.6004417e-08    0.073452075   0.0086777063 
  454000     4000  4.7608717e-14  7.6007527e-08    0.073452075    0.008677372 
  456000     4000  3.7595046e-14  7.6006778e-08    0.073452075    0.008676821 
  458000     4000  2.0021606e-14  7.6004045e-08    0.073452075   0.0086760854 
  460000     4000  2.4677216e-14  7.6006877e-08    0.073452075   0.0086752234 
  462000     4000  2.5408914e-14  7.6006819e-08    0.073452075   0.0086742801 
  464000     4000   1.225737e-14  7.6003788e-08    0.073452075   0.0086732617 
  466000     4000   1.297001e-14  7.6006818e-08    0.073452075     0.00867347 
  468000     4000  1.5369098e-14  7.6006851e-08    0.073452075   0.0086730934 
  470000     4000  1.5026936e-14  7.6003666e-08    0.073452075    0.008673614 
  472000     4000  1.2373883e-14  7.6006337e-08    0.073452075   0.0086733982 
  474000     4000  1.3199929e-14  7.6007136e-08    0.073452075   0.0086734812 
  476000     4000   1.658656e-14  7.6003552e-08    0.073452075   0.0086741896 
  478000     4000  2.1695285e-14  7.6006508e-08    0.073452075   0.0086747509 
  480000     4000  1.8848403e-14  7.6007181e-08    0.073452075   0.0086751747 
  482000     4000  1.5691192e-14  7.6003393e-08    0.073452075   0.0086754346 
  484000     4000   2.144771e-14  7.6006143e-08    0.073452075   0.0086755228 
  486000     4000  2.3461777e-14  7.6007686e-08    0.073452075   0.0086754597 
  488000     4000  1.5012732e-14  7.6003333e-08    0.073452075   0.0086752503 
  490000     4000  1.5290795e-14  7.6005975e-08    0.073452075   0.0086749173 
  492000     4000   1.548243e-14  7.6007548e-08    0.073452075   0.0086744637 
  494000     4000   1.044544e-14  7.6003343e-08    0.073452075   0.0086739053 
  496000     4000  8.9796869e-15  7.6005751e-08    0.073452075   0.0086732792 
  498000     4000  9.6893238e-15  7.6007805e-08    0.073452075   0.0086734529 
  500000     4000  5.7290176e-15  7.6003254e-08    0.073452075   0.0086725125 
  502000     4000  6.3314392e-15  7.6005498e-08    0.073452075   0.0086730059 
  504000     4000  6.6339912e-15  7.6007822e-08    0.073452075   0.0086734972 
  506000     4000   3.723093e-15  7.6003314e-08    0.073452075   0.0086720911 
  508000     4000  8.2732873e-15  7.6005403e-08    0.073452075    0.008672904 
  510000     4000  1.0271668e-14  7.6007988e-08    0.073452075   0.0086735118 
  512000     4000  5.4504397e-15  7.6003346e-08    0.073452075   0.0086734281 
  514000     4000  7.6004299e-15  7.6005068e-08    0.073452075   0.0086737289 
  516000     4000  1.2600501e-14  7.6008162e-08    0.073452075    0.008673926 
  518000     4000  8.5100847e-15   7.600346e-08    0.073452075   0.0086740143 
  520000     4000  8.6634977e-15  7.6005018e-08    0.073452075   0.0086739903 
  522000     4000  1.0614184e-14   7.600805e-08    0.073452075   0.0086738735 
  524000     4000  7.1026177e-15  7.6003577e-08    0.073452075   0.0086736662 
  526000     4000  6.8627807e-15    7.60047e-08    0.073452075   0.0086733805 
  528000     4000   9.384224e-15   7.600825e-08    0.073452075    0.008673608 
  530000     4000  3.8608397e-15  7.6003589e-08    0.073452075   0.0086726182 
  532000     4000  4.9786926e-15  7.6004607e-08    0.073452075   0.0086724556 
  534000     4000  6.3510335e-15  7.6008036e-08    0.073452075   0.0086736148 
  536000     4000  2.6451944e-15  7.6003832e-08    0.073452075   0.0086721919 
  538000     4000  3.3118186e-15  7.6004322e-08    0.073452075   0.0086723272 
  540000     4000  7.2620815e-15  7.6008195e-08    0.073452075   0.0086736101 
  542000     4000  2.9899612e-15  7.6003866e-08    0.073452075   0.0086723171 
  544000     4000  3.4112575e-15  7.6004234e-08    0.073452075   0.0086722366 
  546000     4000  6.8691596e-15   7.600799e-08    0.073452075   0.0086736163 
  548000     4000  5.0835195e-15  7.6004178e-08    0.073452075   0.0086727281 
  550000     4000  4.4122194e-15  7.6004054e-08    0.073452075   0.0086728751 
  552000     4000  7.8439769e-15  7.6008013e-08    0.073452075   0.0086736134 
  554000     4000  4.1106168e-15  7.6004242e-08    0.073452075   0.0086729567 
  556000     4000  4.2905362e-15  7.6003944e-08    0.073452075   0.0086728929 
  558000     4000  7.4877124e-15  7.6007874e-08    0.073452075    0.008673593 
  560000     4000  3.8623425e-15  7.6004505e-08    0.073452075   0.0086726724 
  562000     4000   3.103055e-15  7.6003819e-08    0.073452075    0.008672366 
  564000     4000  6.0365931e-15   7.600771e-08    0.073452075   0.0086735599 
  566000     4000  2.8823281e-15   7.600468e-08    0.073452075   0.0086727718 
  568000     4000  1.7776573e-15  7.6003687e-08    0.073452075    0.008671951 
  570000     4000  5.5938088e-15  7.6007622e-08    0.073452075   0.0086735186 
  572000     4000  2.9814736e-15  7.6004855e-08    0.073452075    0.008672874 
  574000     4000   1.771961e-15  7.6003667e-08    0.073452075   0.0086719758 
  576000     4000   4.661221e-15  7.6007331e-08    0.073452075   0.0086734759 
  578000     4000  3.7149734e-15  7.6005148e-08    0.073452075   0.0086729667 
  580000     4000   2.133928e-15  7.6003541e-08    0.073452075   0.0086719989 
  582000     4000  5.7561427e-15  7.6007276e-08    0.073452075   0.0086734299 
  584000     4000  3.4873546e-15  7.6005236e-08    0.073452075   0.0086730634 
  586000     4000  2.7253744e-15  7.6003607e-08    0.073452075   0.0086722654 
  588000     4000  5.1728658e-15  7.6006923e-08    0.073452075   0.0086733664 
  590000     4000  4.3802999e-15  7.6005589e-08    0.073452075   0.0086731473 
  592000     4000  2.0526113e-15  7.6003487e-08    0.073452075   0.0086721716 
  594000     4000  5.2740281e-15  7.6006824e-08    0.073452075   0.0086732945 
  596000     4000  3.3318744e-15  7.6005636e-08    0.073452075   0.0086732165 
  598000     4000  1.9025055e-15  7.6003604e-08    0.073452075   0.0086720569 
  600000     4000  4.0368802e-15  7.6006463e-08    0.073452075   0.0086732258 
  602000     4000  3.8582853e-15   7.600596e-08    0.073452075   0.0086732838 
  604000     4000  1.2163212e-15  7.6003536e-08    0.073452075   0.0086720728 
  606000     4000  3.7781981e-15  7.6006287e-08    0.073452075    0.008673149 
  608000     4000  3.3409503e-15  7.6006038e-08    0.073452075   0.0086733486 
  610000     4000   1.643908e-15  7.6003668e-08    0.073452075   0.0086720867 
  612000     4000  3.5886144e-15  7.6005979e-08    0.073452075    0.008673071 
  614000     4000  4.0099105e-15  7.6006268e-08    0.073452075   0.0086734077 
  616000     4000  1.6420504e-15  7.6003702e-08    0.073452075   0.0086720988 
  618000     4000  3.4377438e-15  7.6005714e-08    0.073452075   0.0086729768 
  620000     4000  4.2185201e-15  7.6006413e-08    0.073452075   0.0086734563 
  622000     4000   1.961929e-15  7.6003806e-08    0.073452075    0.008672109 
  624000     4000   3.454108e-15  7.6005475e-08    0.073452075   0.0086728764 
  626000     4000  4.0431189e-15  7.6006508e-08    0.073452075   0.0086734943 
  628000     4000  2.0301973e-15  7.6003955e-08    0.073452075   0.0086721175 
  630000     4000  2.7210266e-15  7.6005133e-08    0.073452075   0.0086727779 
  632000     4000  4.3436734e-15  7.6006707e-08    0.073452075   0.0086735266 
  634000     4000   1.670683e-15  7.6004012e-08    0.073452075    0.008672124 
  636000     4000  2.7591656e-15  7.6004956e-08    0.073452075   0.0086726707 
  638000     4000  3.7083841e-15   7.600669e-08    0.073452075   0.0086735587 
  640000     4000  2.0372899e-15  7.6004263e-08    0.073452075   0.0086721288 
  642000     4000  1.9957812e-15  7.6004577e-08    0.073452075    0.008672559 
  644000     4000  4.5133404e-15  7.6006901e-08    0.073452075   0.0086735792 
  646000     4000  1.6742588e-15  7.6004304e-08    0.073452075   0.0086721315 
  648000     4000  2.2683092e-15  7.6004438e-08    0.073452075   0.0086724376 
  650000     4000  3.9971451e-15  7.6006824e-08    0.073452075   0.0086735886 
  652000     4000  2.5195471e-15  7.6004607e-08    0.073452075    0.008672172 
  654000     4000  1.6206178e-15  7.6004078e-08    0.073452075   0.0086723111 
  656000     4000  4.6043998e-15   7.600698e-08    0.073452075   0.0086735891 
  658000     4000  2.2052259e-15  7.6004677e-08    0.073452075   0.0086722943 
  660000     4000  1.7800802e-15  7.6003941e-08    0.073452075   0.0086721882 
  662000     4000  4.0651911e-15  7.6006894e-08    0.073452075   0.0086735828 
  664000     4000  2.7648373e-15  7.6004963e-08    0.073452075   0.0086724127 
  666000     4000  1.2528326e-15  7.6003653e-08    0.073452075   0.0086720595 
  668000     4000   4.214258e-15  7.6006943e-08    0.073452075   0.0086735729 
  670000     4000  2.4941084e-15  7.6005103e-08    0.073452075     0.00867253 
  672000     4000  1.1896215e-15  7.6003488e-08    0.073452075   0.0086719271 
  674000     4000   4.102055e-15   7.600689e-08    0.073452075   0.0086735515 
  676000     4000  2.7076503e-15  7.6005321e-08    0.073452075    0.008672642 
  678000     4000  1.0257598e-15   7.600331e-08    0.073452075     0.00867179 
  680000     4000  3.9624081e-15  7.6006814e-08    0.073452075   0.0086735196 
  682000     4000  3.0087488e-15  7.6005551e-08    0.073452075   0.0086727465 
  684000     4000  7.1773307e-16  7.6003111e-08    0.073452075    0.008671653 
  686000     4000  4.2527794e-15  7.6006799e-08    0.073452075   0.0086734832 
  688000     4000   2.949221e-15  7.6005686e-08    0.073452075   0.0086728426 
  690000     4000  8.9902978e-16  7.6003048e-08    0.073452075   0.0086717266 
  692000     4000  3.7227951e-15  7.6006613e-08    0.073452075     0.00867344 
  694000     4000  3.5916147e-15  7.6005982e-08    0.073452075   0.0086729374 
  696000     4000  3.6104265e-16  7.6002836e-08    0.073452075   0.0086713799 
  698000     4000  4.0856583e-15  7.6006609e-08    0.073452075   0.0086733935 
  700000     4000  3.1756335e-15  7.6006055e-08    0.073452075    0.008673027 
  702000     4000  7.5557094e-16  7.6002865e-08    0.073452075   0.0086717728 
  704000     4000  3.3628935e-15  7.6006358e-08    0.073452075   0.0086733368 
  706000     4000  3.8702289e-15  7.6006361e-08    0.073452075   0.0086731113 
  708000     4000  1.8483855e-16  7.6002687e-08    0.073452075   0.0086712756 
  710000     4000  3.7364824e-15  7.6006327e-08    0.073452075   0.0086732718 
  712000     4000  3.4279789e-15  7.6006414e-08    0.073452075   0.0086731862 
  714000     4000  6.4469325e-16  7.6002759e-08    0.073452075   0.0086717305 
  716000     4000   3.204034e-15  7.6006068e-08    0.073452075   0.0086732013 
  718000     4000   4.015934e-15  7.6006667e-08    0.073452075   0.0086732545 
  720000     4000    2.40789e-16  7.6002666e-08    0.073452075   0.0086713163 
  722000     4000  3.3990043e-15  7.6005969e-08    0.073452075   0.0086731254 
  724000     4000  3.8601376e-15  7.6006744e-08    0.073452075   0.0086733186 
  726000     4000  4.8495241e-16  7.6002737e-08    0.073452075   0.0086716006 
  728000     4000  3.0883102e-15  7.6005751e-08    0.073452075   0.0086730428 
  730000     4000  4.1238747e-15  7.6006897e-08    0.073452075   0.0086733762 
  732000     4000   4.114911e-16  7.6002764e-08    0.073452075   0.0086715345 
  734000     4000  2.8673165e-15  7.6005562e-08    0.073452075   0.0086729518 
  736000     4000  4.2707855e-15  7.6007016e-08    0.073452075   0.0086734238 
  737501     4000  1.2834186e-15  7.6003629e-08    0.073452075   0.0086734238 
Loop time of 204.023 on 2 procs for 687500 steps with 4000 atoms, finish time Thu Jun 11 21:22:02 2026


Pair  time (%) = 157.374 (77.1356)
Neigh time (%) = 0.602415 (0.295268)
Comm  time (%) = 4.00562 (1.96332)
Outpt time (%) = 0.36449 (0.178652)
Other time (%) = 41.6761 (20.4271)

Nlocal:    2000 ave 2016 max 1984 min
Histogram: 1 0 0 0 0 0 0 0 0 1
Nghost:    296.5 ave 306 max 287 min
Histogram: 1 0 0 0 0 0 0 0 0 1
Neighs:    12717.5 ave 12921 max 12514 min
Histogram: 1 0 0 0 0 0 0 0 0 1

Total # of neighbors = 25435
Ave neighs/atom = 6.35875
Neighbor list builds = 515
Dangerous builds = 0
Setting up run at Thu Jun 11 21:22:02 2026

Memory usage per processor = 17.4439 Mbytes
    Step    Atoms         KinEng            rke          ts[1]          ts[2] 
  737501     4000  1.2834186e-15  7.6003629e-08    0.073452075   0.0086734238 
  738000     4000   3.839832e-16  7.6002811e-08    0.073452075   0.0019909145 
  740000     4000  2.8241413e-15  7.6005407e-08    0.073452075    0.002552643 
  742000     4000   4.080428e-15  7.6007051e-08    0.073452075   0.0026979332 
  744000     4000  7.4141858e-16  7.6002963e-08    0.073452075   0.0021154283 
  746000     4000  2.3279089e-15  7.6005141e-08    0.073452075   0.0025249842 
  748000     4000  4.4904243e-15  7.6007198e-08    0.073452075   0.0027045607 
  750000     4000  4.5859843e-16  7.6002989e-08    0.073452075   0.0021562482 
  752000     4000  2.6077448e-15  7.6005042e-08    0.073452075   0.0024947525 
  754000     4000  4.0265373e-15  7.6007135e-08    0.073452075    0.002710149 
  756000     4000  1.0563527e-15  7.6003234e-08    0.073452075   0.0022212226 
  758000     4000  1.9741171e-15  7.6004739e-08    0.073452075    0.002461521 
  760000     4000  4.5796755e-15   7.600727e-08    0.073452075   0.0027138899 
  762000     4000  6.3878377e-16  7.6003273e-08    0.073452075   0.0022787862 
  764000     4000  2.3121604e-15  7.6004665e-08    0.073452075   0.0024243724 
  766000     4000  4.0716848e-15  7.6007153e-08    0.073452075   0.0027159744 
  768000     4000  1.2774511e-15  7.6003557e-08    0.073452075   0.0023293612 
  770000     4000  1.6631845e-15   7.600438e-08    0.073452075    0.002383839 
  772000     4000  4.4953852e-15  7.6007225e-08    0.073452075    0.002716263 
  774000     4000  1.0134403e-15  7.6003652e-08    0.073452075   0.0023739565 
  776000     4000  1.8588326e-15   7.600429e-08    0.073452075   0.0023392281 
  778000     4000  4.1139945e-15    7.60071e-08    0.073452075   0.0027152734 
  780000     4000  1.5096112e-15  7.6003919e-08    0.073452075   0.0024144631 
  782000     4000  1.4750992e-15  7.6004077e-08    0.073452075   0.0022900563 
  784000     4000  4.2121179e-15  7.6007067e-08    0.073452075   0.0027129217 
  786000     4000  1.5611923e-15    7.60041e-08    0.073452075   0.0024515163 
  787502     4000   1.229805e-15  7.6003534e-08    0.073452075   0.0024515163 
Loop time of 14.842 on 2 procs for 50001 steps with 4000 atoms, finish time Thu Jun 11 21:22:17 2026


Pair  time (%) = 11.8143 (79.6003)
Neigh time (%) = 0 (0)
Comm  time (%) = 0.292438 (1.97034)
Outpt time (%) = 0.0251235 (0.169273)
Other time (%) = 2.71016 (18.2601)

Nlocal:    2000 ave 2016 max 1984 min
Histogram: 1 0 0 0 0 0 0 0 0 1
Nghost:    296.5 ave 306 max 287 min
Histogram: 1 0 0 0 0 0 0 0 0 1
Neighs:    12717.5 ave 12921 max 12514 min
Histogram: 1 0 0 0 0 0 0 0 0 1

Total # of neighbors = 25435
Ave neighs/atom = 6.35875
Neighbor list builds = 0
Dangerous builds = 0
AUDIT relax: KE = 1.22980503274605e-15 J  (heap should be static)
      233.64 real       463.57 user         2.63 sys
