LIGGGHTS (Version LIGGGHTS-PUBLIC 3.8.0, compiled 2026-06-11-14:52:41 by joshuamayo, git commit 3d5c00f20519e6bb6eb6756f51f1ad36564e649d)
# drawdown.in — Parameterized orifice-discharge (drawdown) flow test (Phase-9 probe).
#
# Fill the lifted-cylinder geometry over an annular floor whose orifice is
# blocked by a plug disk; settle; remove the plug; discharge through the
# orifice. Mass flow rate comes from fix massflow/mesh on a counting disk
# below the floor (delete_atoms keeps the shrink-wrapped domain bounded —
# the Phase-5 neighbor-grid lesson). The probe question is DISCRIMINATION
# along the Phase-8 friction valley, so no physical target is required yet.
#
# Inertial orifice flow is a genuinely different regime from the quasi-static
# heap and the slow-rolling drum — the two responses that proved degenerate
# for single spheres (results/phase9-drum/NOTES.md, M4).
#
# Run (from repo root):
#   mpirun -np 2 lmp_auto -in templates/drawdown.in \
#       -var TAG dev -var FRIC 0.4 -var ROLLFRIC 0.12 -var REST 0.5 -log log.dev
#
# Atom types: 1 = particles, 2 = walls (cylinder + floor + plug; matrix as aor.in).

# ---------------------------------------------------------------- variables
variable FRIC       index 0.40          # mu_s particle-particle  [calibration target]
variable FRICPW     index 0.40          # mu_s particle-wall      [calibration target]
variable ROLLFRIC   index 0.12          # mu_r particle-particle, epsd2 [target]
variable ROLLFRICPW index 0.12          # mu_r particle-wall, epsd2     [target]
variable REST       index 0.50          # restitution             [target, weak]
variable SEED       index 49979687      # insertion seed
variable TAG        index dev           # output label
variable NPART      index 4000          # particles inserted (the aor fill)
variable MESH       index templates/meshes/cylinder_r0.040_h0.100.stl
variable FLOORMESH  index templates/meshes/floor_annulus_r0.046_o0.011.stl
variable PLUGMESH   index templates/meshes/plug_disk_r0.0135.stl
variable CATCHMESH  index templates/meshes/catch_disk_r0.030.stl
variable YMOD       index 1.0e7         # softened Young's modulus [Pa]
variable DT         index 8.0e-6        # timestep [s]
variable GRAVZ      index -1.0          # gravity z sign (fault-injection knob)
variable SETTLET    index 0.4           # settle stage [s]
variable DISCHARGE  index 1.4           # discharge stage [s] (~full drain at D_o 22 mm)

# fixed (non-calibrated) material inputs
variable POIS       equal 0.25
variable RHO        equal 1400

variable settlesteps equal floor(v_SETTLET/v_DT+0.5)
variable opensteps   equal floor(0.09/v_DT+0.5)
variable dischsteps  equal floor(v_DISCHARGE/v_DT+0.5)-floor(0.09/v_DT+0.5)
variable dumpevery   equal 25000

# ---------------------------------------------------------------- setup
atom_style	granular
atom_modify	map array
boundary	m m m
newton		off
communicate	single vel yes
units		si

region		reg block -0.14 0.14 -0.14 0.14 -0.05 0.20 units box
create_box	2 reg
Created orthogonal box = (-0.14 -0.14 -0.05) to (0.14 0.14 0.2)
  1 by 2 by 1 MPI processor grid

neighbor	0.002 bin
neigh_modify	delay 0

# ---------------------------------------------------------------- material / contact model
fix 	m1 all property/global youngsModulus peratomtype ${YMOD} ${YMOD}
fix 	m1 all property/global youngsModulus peratomtype 1.0e7 ${YMOD}
fix 	m1 all property/global youngsModulus peratomtype 1.0e7 1.0e7
fix 	m2 all property/global poissonsRatio peratomtype ${POIS} ${POIS}
fix 	m2 all property/global poissonsRatio peratomtype 0.25 ${POIS}
fix 	m2 all property/global poissonsRatio peratomtype 0.25 0.25
fix 	m3 all property/global coefficientRestitution peratomtypepair 2 ${REST} ${REST} ${REST} ${REST}
fix 	m3 all property/global coefficientRestitution peratomtypepair 2 0.5762 ${REST} ${REST} ${REST}
fix 	m3 all property/global coefficientRestitution peratomtypepair 2 0.5762 0.5762 ${REST} ${REST}
fix 	m3 all property/global coefficientRestitution peratomtypepair 2 0.5762 0.5762 0.5762 ${REST}
fix 	m3 all property/global coefficientRestitution peratomtypepair 2 0.5762 0.5762 0.5762 0.5762
fix 	m4 all property/global coefficientFriction peratomtypepair 2 ${FRIC} ${FRICPW} ${FRICPW} ${FRICPW}
fix 	m4 all property/global coefficientFriction peratomtypepair 2 0.4001 ${FRICPW} ${FRICPW} ${FRICPW}
fix 	m4 all property/global coefficientFriction peratomtypepair 2 0.4001 0.4001 ${FRICPW} ${FRICPW}
fix 	m4 all property/global coefficientFriction peratomtypepair 2 0.4001 0.4001 0.4001 ${FRICPW}
fix 	m4 all property/global coefficientFriction peratomtypepair 2 0.4001 0.4001 0.4001 0.4001
fix 	m5 all property/global coefficientRollingFriction peratomtypepair 2 ${ROLLFRIC} ${ROLLFRICPW} ${ROLLFRICPW} ${ROLLFRICPW}
fix 	m5 all property/global coefficientRollingFriction peratomtypepair 2 0.1374 ${ROLLFRICPW} ${ROLLFRICPW} ${ROLLFRICPW}
fix 	m5 all property/global coefficientRollingFriction peratomtypepair 2 0.1374 0.1374 ${ROLLFRICPW} ${ROLLFRICPW}
fix 	m5 all property/global coefficientRollingFriction peratomtypepair 2 0.1374 0.1374 0.1374 ${ROLLFRICPW}
fix 	m5 all property/global coefficientRollingFriction peratomtypepair 2 0.1374 0.1374 0.1374 0.1374

pair_style gran model hertz tangential history rolling_friction epsd2
WARNING: 
	The contact model you specified is not located in any whitelist.
	Because of this the model will be run in an unoptimized version (increasing runtime by up to 20%).
	In order to optimize this model you have the following options:
		(i)  Run the genAutoExamplesWhitelist.sh script in your LIGGGHTS(R) source folder to automatically parse the input script
		(ii) Add the model combination by hand to your style_contact_model_user.whitelist that can be found in your LIGGGHTS(R) source folder
		(iii) Use the ENABLE_MODEL_* flag when building with cmake.
	If you perform one of the steps above LIGGGHTS(R) needs to be recompiled to generate the optimized code.

 (../contact_models.h:365)
pair_coeff	* *

timestep	${DT}
timestep	8.0e-6

fix		gravi all gravity 9.81 vector 0.0 0.0 ${GRAVZ}
fix		gravi all gravity 9.81 vector 0.0 0.0 -1.0

# cylinder side wall + annular floor + plug: ONE wall fix — LIGGGHTS 3.8
# supports a single wall/gran of style mesh, so the plug cannot get its own
# (first smoke run failed on exactly that). The orifice opens by MOVING the
# plug down out of the flow (fix move/mesh, the aor.in lift pattern) and
# parking it below the counting plane.
fix cyl   all mesh/surface file ${MESH} type 2
fix cyl   all mesh/surface file ../../../../../templates/meshes/cylinder_r0.040_h0.100.stl type 2
fix floor all mesh/surface file ${FLOORMESH} type 2
fix floor all mesh/surface file ../../../../../templates/meshes/floor_annulus_r0.046_o0.011.stl type 2
fix plug  all mesh/surface file ${PLUGMESH} type 2
fix plug  all mesh/surface file ../../../../../templates/meshes/plug_disk_r0.0135.stl type 2
fix statwall all wall/gran model hertz tangential history rolling_friction epsd2 mesh n_meshes 3 meshes cyl floor plug
WARNING: 
	The contact model you specified is not located in any whitelist.
	Because of this the model will be run in an unoptimized version (increasing runtime by up to 20%).
	In order to optimize this model you have the following options:
		(i)  Run the genAutoExamplesWhitelist.sh script in your LIGGGHTS(R) source folder to automatically parse the input script
		(ii) Add the model combination by hand to your style_contact_model_user.whitelist that can be found in your LIGGGHTS(R) source folder
		(iii) Use the ENABLE_MODEL_* flag when building with cmake.
	If you perform one of the steps above LIGGGHTS(R) needs to be recompiled to generate the optimized code.

 (../contact_models.h:365)

# counting plane below the orifice — NOT a wall; massflow counts + deletes
fix catch all mesh/surface file ${CATCHMESH} type 2
fix catch all mesh/surface file ../../../../../templates/meshes/catch_disk_r0.030.stl type 2
fix ms all massflow/mesh mesh catch vec_side 0. 0. -1. count once delete_atoms yes

# ---------------------------------------------------------------- particles (fixed PSD)
fix	pts1 all particletemplate/sphere 15485863 atom_type 1 density constant ${RHO} radius constant 0.0017
fix	pts1 all particletemplate/sphere 15485863 atom_type 1 density constant 1400 radius constant 0.0017
fix	pts2 all particletemplate/sphere 15485867 atom_type 1 density constant ${RHO} radius constant 0.00185
fix	pts2 all particletemplate/sphere 15485867 atom_type 1 density constant 1400 radius constant 0.00185
fix	pts3 all particletemplate/sphere 32452843 atom_type 1 density constant ${RHO} radius constant 0.0020
fix	pts3 all particletemplate/sphere 32452843 atom_type 1 density constant 1400 radius constant 0.0020
fix	pdd1 all particledistribution/discrete 32452867 3 pts1 0.25 pts2 0.50 pts3 0.25

region	bc cylinder z 0. 0. 0.0375 0.004 0.085 units box
fix	ins all insert/pack seed ${SEED} distributiontemplate pdd1 vel constant 0. 0. -0.3 		insert_every once overlapcheck yes all_in yes particles_in_region ${NPART} region bc
fix	ins all insert/pack seed 67867967 distributiontemplate pdd1 vel constant 0. 0. -0.3 		insert_every once overlapcheck yes all_in yes particles_in_region ${NPART} region bc
fix	ins all insert/pack seed 67867967 distributiontemplate pdd1 vel constant 0. 0. -0.3 		insert_every once overlapcheck yes all_in yes particles_in_region 4000 region bc

fix	integr all nve/sphere

# nevery 1000 to match the fine thermo cadence (thermo errors out when a
# referenced fix computes on an incompatible schedule)
fix	ts all check/timestep/gran 1000 0.1 0.1

# ---------------------------------------------------------------- output
# fine-grained thermo (8 ms) is the measurement: f_ms[1] = crossed mass [kg]
compute	rke all erotate/sphere
thermo_style	custom step atoms ke f_ms[1] f_ts[1] f_ts[2]
thermo		1000
thermo_modify	lost ignore norm no
dump	dmp all custom ${dumpevery} post/${TAG}_*.liggghts id type x y z vx vy vz omegax omegay omegaz radius
dump	dmp all custom 25000 post/${TAG}_*.liggghts id type x y z vx vy vz omegax omegay omegaz radius
dump	dmp all custom 25000 post/dd2e92a3d305_s67867967_*.liggghts id type x y z vx vy vz omegax omegay omegaz radius

# ---------------------------------------------------------------- stages
# stage 1 — fill and settle over the plugged orifice
run	${settlesteps}
run	50000
Setting up run at Fri Jun 12 15:46:35 2026

INFO: Particle insertion ins: inserting every 0 steps
Memory usage per processor = 15.7366 Mbytes
    Step    Atoms         KinEng          ms[1]          ts[1]          ts[2] 
       0        0              0              0              0              0 
INFO: Particle insertion ins: inserted 4000 particle templates (mass 1.456074e-01) at step 1
 - a total of 4000 particle templates (mass 1.456074e-01) inserted so far.
    1000     4000    0.010426758              0    0.073452075    0.020600207 
    2000     4000    0.014059028              0    0.073452075    0.021577446 
    3000     4000    0.017139804              0    0.073452075    0.022209865 
    4000     4000    0.019659909              0    0.073452075     0.02275382 
    5000     4000    0.020626887              0    0.073452075    0.023295918 
    6000     4000    0.019469275              0    0.073452075    0.023858184 
    7000     4000    0.015439036              0    0.073452075    0.024292187 
    8000     4000     0.00834436              0    0.073452075    0.024729445 
    9000     4000   0.0011513531              0    0.073452075    0.024891358 
   10000     4000  0.00026449971              0    0.073452075    0.021925488 
   11000     4000  9.9189898e-05              0    0.073452075    0.019605815 
   12000     4000  5.3269138e-05              0    0.073452075    0.020052452 
   13000     4000  3.0195509e-05              0    0.073452075    0.019206116 
   14000     4000  1.6748823e-05              0    0.073452075    0.018021527 
   15000     4000  1.0012646e-05              0    0.073452075    0.017728328 
   16000     4000  7.8508081e-06              0    0.073452075    0.017922089 
   17000     4000  4.5651984e-06              0    0.073452075    0.018839881 
   18000     4000  2.1631835e-06              0    0.073452075    0.016975059 
   19000     4000  1.0429268e-06              0    0.073452075    0.014980774 
   20000     4000   1.018708e-06              0    0.073452075    0.016125581 
   21000     4000  5.5957808e-07              0    0.073452075     0.01578406 
   22000     4000  4.8011821e-07              0    0.073452075    0.014815671 
   23000     4000  4.6112447e-07              0    0.073452075    0.016058032 
   24000     4000  3.5443512e-07              0    0.073452075    0.014153592 
   25000     4000  3.7304755e-07              0    0.073452075    0.015086267 
   26000     4000  3.3359884e-07              0    0.073452075    0.015139263 
   27000     4000  1.4913991e-07              0    0.073452075    0.014095164 
   28000     4000  9.4860908e-08              0    0.073452075    0.012970553 
   29000     4000  2.2652618e-07              0    0.073452075    0.015095441 
   30000     4000  3.1473293e-07              0    0.073452075    0.016504797 
   31000     4000   8.755279e-08              0    0.073452075    0.014056837 
   32000     4000  2.2429288e-08              0    0.073452075    0.011886048 
   33000     4000  2.4647231e-08              0    0.073452075    0.012538808 
   34000     4000  1.0645657e-08              0    0.073452075      0.0110468 
   35000     4000  1.1560766e-08              0    0.073452075    0.010966375 
   36000     4000   1.359109e-08              0    0.073452075     0.01175014 
   37000     4000  2.1077293e-08              0    0.073452075     0.01260764 
   38000     4000  3.9220167e-08              0    0.073452075    0.013546283 
   39000     4000  3.2173889e-08              0    0.073452075    0.013380389 
   40000     4000  3.9706012e-08              0    0.073452075    0.013649064 
   41000     4000  2.6432327e-08              0    0.073452075    0.013048933 
   42000     4000  3.1927816e-08              0    0.073452075      0.0134569 
   43000     4000  4.9896649e-08              0    0.073452075    0.014137421 
   44000     4000  9.2295521e-09              0    0.073452075     0.01189624 
   45000     4000  4.9389819e-09              0    0.073452075    0.010616856 
   46000     4000  4.9723805e-10              0    0.073452075   0.0085595466 
   47000     4000  1.2393642e-10              0    0.073452075   0.0062979961 
   48000     4000  1.1984679e-10              0    0.073452075   0.0067465759 
   49000     4000  1.4551023e-10              0    0.073452075   0.0073819476 
   50000     4000  2.0997075e-10              0    0.073452075   0.0079997319 
Loop time of 30.2457 on 2 procs for 50000 steps with 4000 atoms, finish time Fri Jun 12 15:47:05 2026


Pair  time (%) = 17.2764 (57.1201)
Neigh time (%) = 0.116526 (0.385267)
Comm  time (%) = 0.581528 (1.92268)
Outpt time (%) = 0.009567 (0.031631)
Other time (%) = 12.2617 (40.5404)

Nlocal:    2000 ave 2016 max 1984 min
Histogram: 1 0 0 0 0 0 0 0 0 1
Nghost:    379.5 ave 385 max 374 min
Histogram: 1 0 0 0 0 0 0 0 0 1
Neighs:    13920.5 ave 14054 max 13787 min
Histogram: 1 0 0 0 0 0 0 0 0 1

Total # of neighbors = 27841
Ave neighs/atom = 6.96025
Neighbor list builds = 78
Dangerous builds = 0
variable natoms equal atoms
print	"AUDIT settle: atoms = ${natoms} (target ${NPART})"
AUDIT settle: atoms = 4000 (target 4000)

# stage 2 — open the orifice: slide the plug down at 0.5 m/s for 0.09 s
# (parks at z ~ -0.044, below the counting plane), then discharge
fix	mvplug all move/mesh mesh plug linear 0. 0. -0.5
run	${opensteps}
run	11250
Setting up run at Fri Jun 12 15:47:05 2026

Memory usage per processor = 21.1381 Mbytes
    Step    Atoms         KinEng          ms[1]          ts[1]          ts[2] 
   50000     4000  2.0997075e-10              0    0.073452075   0.0079997319 
   51000     4000  3.2330391e-05              0    0.073452075    0.020025176 
   52000     4000  5.0410369e-05              0    0.073452075    0.020546186 
   53000     4000  6.4291178e-05              0    0.073452075    0.021020294 
   54000     4000  9.7347303e-05              0    0.073452075    0.021387517 
   55000     4000  0.00014949965              0    0.073452075    0.021742837 
   56000     4000  0.00022390725              0    0.073452075    0.022357379 
   57000     4000  0.00032889475              0    0.073452075    0.022941547 
   58000     4000  0.00044406007              0    0.073452075    0.023471703 
   59000     4000  0.00057474474              0    0.073452075    0.023957921 
   60000     3983  0.00054507041  0.00055781135    0.073452075     0.02414011 
   61000     3973  0.00055476074   0.0010425139    0.073452075    0.024282089 
   61250     3969  0.00054068349   0.0011084558    0.073452075    0.024282089 
Loop time of 7.59005 on 2 procs for 11250 steps with 3969 atoms, finish time Fri Jun 12 15:47:13 2026


Pair  time (%) = 4.41472 (58.1646)
Neigh time (%) = 0.0883185 (1.16361)
Comm  time (%) = 0.137266 (1.8085)
Outpt time (%) = 0.0001895 (0.00249669)
Other time (%) = 2.94955 (38.8608)

Nlocal:    1984.5 ave 1999 max 1970 min
Histogram: 1 0 0 0 0 0 0 0 0 1
Nghost:    385 ave 386 max 384 min
Histogram: 1 0 0 0 0 0 0 0 0 1
Neighs:    13502 ave 13578 max 13426 min
Histogram: 1 0 0 0 0 0 0 0 0 1

Total # of neighbors = 27004
Ave neighs/atom = 6.80373
Neighbor list builds = 55
Dangerous builds = 0
unfix	mvplug
run	${dischsteps}
run	163750
Setting up run at Fri Jun 12 15:47:13 2026

Memory usage per processor = 21.138 Mbytes
    Step    Atoms         KinEng          ms[1]          ts[1]          ts[2] 
   61250     3969  0.00054068349   0.0011084558    0.073452075    0.024282089 
   62000     3964  0.00059418138   0.0013341685    0.073452075    0.024263667 
   63000     3954   0.0006200624   0.0017743456    0.073452075    0.024294106 
   64000     3940  0.00061284371   0.0022819291    0.073452075    0.024366041 
   65000     3927  0.00058106643   0.0027226464    0.073452075    0.024400161 
   66000     3917  0.00057063424   0.0030787784    0.073452075    0.024398591 
   67000     3909  0.00058531503    0.003385607    0.073452075    0.024447008 
   68000     3899  0.00059729737   0.0037129276    0.073452075    0.024490479 
   69000     3890  0.00062822462    0.003998652    0.073452075    0.024305063 
   70000     3881  0.00065237185   0.0043455404    0.073452075     0.02443961 
   71000     3872  0.00068800287   0.0046918885    0.073452075    0.024433991 
   72000     3858  0.00064454583   0.0051994721    0.073452075    0.024438971 
   73000     3848  0.00064693728   0.0055570687    0.073452075    0.024364134 
   74000     3838  0.00065669144   0.0058677508    0.073452075    0.024416944 
   75000     3831   0.0007119557   0.0061496216    0.073452075     0.02455909 
   76000     3820  0.00074613325   0.0064876505    0.073452075    0.024326222 
   77000     3809  0.00077720445   0.0069004808    0.073452075    0.024447471 
   78000     3799  0.00083393165   0.0072482936    0.073452075    0.024408159 
   79000     3781  0.00072541967   0.0079112541    0.073452075    0.024599969 
   80000     3769  0.00070878419   0.0083597504    0.073452075    0.024384983 
   81000     3760  0.00073120298   0.0087892192    0.073452075    0.024534194 
   82000     3750  0.00072803589   0.0090975124    0.073452075    0.024436813 
   83000     3735  0.00066118114   0.0096695733    0.073452075    0.024703036 
   84000     3726  0.00069159941   0.0099778664    0.073452075    0.024433068 
   85000     3712  0.00064679413    0.010486915    0.073452075    0.024470559 
   86000     3699  0.00060077388     0.01098325    0.073452075     0.02447669 
   87000     3690   0.0006458308    0.011247017    0.073452075    0.024556646 
   88000     3681  0.00066024232    0.011567483    0.073452075    0.024480318 
   89000     3668  0.00061068496    0.012072678    0.073452075    0.024402396 
   90000     3659  0.00063550399    0.012399999    0.073452075     0.02434592 
   91000     3648  0.00064499665    0.012832397    0.073452075     0.02447969 
   92000     3640   0.0007010276    0.013152863    0.073452075    0.024503001 
   93000     3628  0.00071127438    0.013549055    0.073452075    0.024465814 
   94000     3614   0.0006897218    0.014148462    0.073452075    0.024479014 
   95000     3603  0.00070998504     0.01449535    0.073452075    0.024483533 
   96000     3595   0.0007867613    0.014803644    0.073452075    0.024356402 
   97000     3584  0.00079121235    0.015179343    0.073452075    0.024454841 
   98000     3573  0.00077879972    0.015620985    0.073452075     0.02427344 
   99000     3563  0.00083827307    0.016101222    0.073452075     0.02450093 
  100000     3544  0.00073238463    0.016690461    0.073452075    0.024440979 
  101000     3531  0.00070602689    0.017151131    0.073452075    0.024452326 
  102000     3516  0.00067491205     0.01768845    0.073452075    0.024499863 
  103000     3504  0.00062211151    0.018137486    0.073452075    0.024631053 
  104000     3490  0.00056625339    0.018607399    0.073452075    0.024424795 
  105000     3480  0.00055369399    0.018963531    0.073452075    0.024408485 
  106000     3472  0.00058146036    0.019246867    0.073452075    0.024328284 
  107000     3461  0.00056850947    0.019700681    0.073452075    0.024522458 
  108000     3450  0.00054248021    0.020011363    0.073452075     0.02449154 
  109000     3441  0.00054538847    0.020320581    0.073452075    0.024561602 
  110000     3434  0.00059746278    0.020602452    0.073452075    0.024417661 
  111000     3423   0.0005707562     0.02098647    0.073452075    0.024591458 
  112000     3419  0.00066247808    0.021126674    0.073452075    0.024386427 
  113000     3408  0.00065568104     0.02156978    0.073452075    0.024541125 
  114000     3395  0.00063513979     0.02197668    0.073452075    0.024461789 
  115000     3382  0.00059324017    0.022437349    0.073452075    0.024351231 
  116000     3370  0.00056768042    0.022877526    0.073452075    0.024484173 
  117000     3361  0.00057794522    0.023214631    0.073452075    0.024450913 
  118000     3352  0.00059275938    0.023535097    0.073452075     0.02442062 
  119000     3346  0.00064594873    0.023804795    0.073452075    0.024605766 
  120000     3340  0.00072798931    0.024001696    0.073452075     0.02421526 
  121000     3331   0.0007519015    0.024385715    0.073452075    0.024457337 
  122000     3318  0.00072560744    0.024827357    0.073452075    0.024464692 
  123000     3304  0.00067131392    0.025408277    0.073452075    0.024540877 
  124000     3289  0.00060027665    0.025934888    0.073452075     0.02445041 
  125000     3275  0.00053893753    0.026402412    0.073452075     0.02443898 
  126000     3265  0.00053471822    0.026758544    0.073452075    0.024551856 
  127000     3254  0.00048225278    0.027209045    0.073452075    0.024322947 
  128000     3250  0.00055088269    0.027377135    0.073452075    0.024543964 
  129000     3244  0.00059360527    0.027656617    0.073452075    0.024496382 
  130000     3232  0.00055979139    0.028106578    0.073452075     0.02443063 
  131000     3221  0.00054385326     0.02845439    0.073452075    0.024338535 
  132000     3217  0.00060200356    0.028689887    0.073452075    0.024474023 
  133000     3201  0.00048910861     0.02921118    0.073452075     0.02445481 
  134000     3198  0.00057207118    0.029332355    0.073452075    0.024656942 
  135000     3187   0.0005466728    0.029772533    0.073452075    0.024674627 
  136000     3177  0.00051464137    0.030176119    0.073452075    0.024679647 
  137000     3169  0.00049464216    0.030429179    0.073452075    0.024501282 
  138000     3161  0.00051137741     0.03070273    0.073452075    0.024541652 
  139000     3156  0.00056915994    0.030900556    0.073452075    0.024568223 
  140000     3147  0.00055175036    0.031310997    0.073452075    0.024639491 
  141000     3137  0.00053208542    0.031609507    0.073452075    0.024329715 
  142000     3128  0.00054180606    0.031928508    0.073452075    0.024463646 
  143000     3123   0.0006176156    0.032183032    0.073452075    0.024624918 
  144000     3113  0.00059835218    0.032521601    0.073452075    0.024508733 
  145000     3105     0.00059968    0.032833748    0.073452075    0.024529501 
  146000     3093  0.00056826428    0.033257287    0.073452075    0.024413972 
  147000     3084  0.00057835278    0.033492243    0.073452075     0.02439825 
  148000     3077  0.00062008458    0.033765794    0.073452075    0.024415525 
  149000     3060  0.00053426769    0.034367207    0.073452075    0.024428749 
  150000     3050  0.00052645695    0.034742907    0.073452075     0.02441949 
  151000     3044  0.00057217629    0.034987647    0.073452075    0.024363255 
  152000     3036  0.00060856757    0.035287621    0.073452075    0.024352694 
  153000     3024  0.00060264529    0.035664245    0.073452075    0.024307138 
  154000     3011  0.00055248767     0.03616112    0.073452075    0.024534551 
  155000     3000  0.00052447585    0.036552918    0.073452075    0.024431073 
  156000     2993  0.00052830751    0.036825545    0.073452075    0.024319911 
  157000     2983   0.0005163833    0.037181677    0.073452075    0.024411138 
  158000     2974    0.000486809    0.037574016    0.073452075    0.024477229 
  159000     2967  0.00050672371    0.037893017    0.073452075     0.02464595 
  160000     2955  0.00045533269    0.038239905    0.073452075     0.02440542 
  161000     2947  0.00047003967    0.038533025    0.073452075    0.024309373 
  162000     2940  0.00049326717    0.038795868    0.073452075    0.024490815 
  163000     2934  0.00053807203    0.039002013    0.073452075    0.024346147 
  164000     2927  0.00057540833    0.039281495    0.073452075    0.024225027 
  165000     2921  0.00064153658    0.039505743    0.073452075    0.024339042 
  166000     2911  0.00065279603    0.039879978    0.073452075    0.024464972 
  167000     2897  0.00061417815     0.04039827    0.073452075     0.02434824 
  168000     2883  0.00057919057    0.040840836    0.073452075    0.024392901 
  169000     2876  0.00060902561    0.041111999    0.073452075    0.024627055 
  170000     2862  0.00055094947     0.04159855    0.073452075    0.024297753 
  171000     2856  0.00060749251    0.041862317    0.073452075    0.024494252 
  172000     2849  0.00065602992    0.042191103    0.073452075    0.024532741 
  173000     2834  0.00058608734    0.042652312    0.073452075     0.02453575 
  174000     2824    0.000570825    0.043008984    0.073452075    0.024404218 
  175000     2816  0.00058930647    0.043317277    0.073452075    0.024334454 
  176000     2804  0.00055517094    0.043786266    0.073452075    0.024436252 
  177000     2795  0.00055520617    0.044093094    0.073452075    0.024649771 
  178000     2786  0.00056086036    0.044431664    0.073452075    0.024540171 
  179000     2780  0.00062606895    0.044723318    0.073452075     0.02457392 
  180000     2769  0.00061816192    0.045099942    0.073452075    0.024576994 
  181000     2757  0.00058506498    0.045550828    0.073452075    0.024471592 
  182000     2743  0.00051293867    0.045953874    0.073452075    0.024481502 
  183000     2736  0.00051611581    0.046225037    0.073452075     0.02448214 
  184000     2723  0.00046358011    0.046659283    0.073452075     0.02424852 
  185000     2717  0.00051341201    0.046857109    0.073452075    0.024323207 
  186000     2707    0.000500531    0.047250372    0.073452075    0.024452454 
  187000     2700  0.00050647911    0.047494188    0.073452075    0.024446945 
  188000     2689  0.00047707834    0.047888915    0.073452075     0.02439568 
  189000     2681  0.00047306139    0.048244122    0.073452075     0.02450549 
  190000     2672   0.0004584108    0.048517674    0.073452075     0.02443577 
  191000     2666  0.00047961728    0.048760025    0.073452075    0.024265401 
  192000     2660  0.00052081789    0.049021404    0.073452075    0.024312971 
  193000     2650  0.00051359776    0.049397104    0.073452075    0.024385438 
  194000     2639  0.00047562657    0.049838745    0.073452075    0.024238574 
  195000     2631  0.00048869412    0.050064458    0.073452075     0.02419218 
  196000     2622  0.00049474277    0.050412271    0.073452075      0.0243603 
  197000     2614  0.00050270535    0.050703001    0.073452075    0.024334885 
  198000     2607  0.00053388516    0.050956061    0.073452075     0.02444403 
  199000     2600  0.00057309171    0.051217439    0.073452075    0.024235976 
  200000     2591  0.00056709675    0.051572647    0.073452075    0.024391111 
  201000     2583  0.00058660123    0.051862837    0.073452075    0.024421818 
  202000     2568  0.00051775765    0.052428043    0.073452075    0.024356975 
  203000     2557  0.00045838843    0.052828701    0.073452075    0.024439234 
  204000     2547  0.00042778674    0.053183368    0.073452075    0.024349833 
  205000     2542  0.00045810196    0.053380269    0.073452075    0.024299151 
  206000     2532  0.00043552911    0.053762824    0.073452075    0.024415404 
  207000     2522  0.00038933429    0.054146843    0.073452075    0.024291098 
  208000     2518  0.00042724975    0.054314933    0.073452075    0.024352652 
  209000     2515  0.00049272047    0.054463455    0.073452075    0.024263643 
  210000     2509  0.00051953164    0.054658892    0.073452075    0.024312325 
  211000     2498  0.00049236779    0.055100534    0.073452075    0.024318333 
  212000     2490  0.00051461134    0.055382404    0.073452075    0.024362463 
  213000     2484  0.00055157498    0.055636004    0.073452075    0.024173222 
  214000     2472  0.00052108744    0.056048835    0.073452075    0.024145783 
  215000     2463  0.00054185869    0.056358052    0.073452075    0.024256569 
  216000     2456  0.00056261064    0.056723044    0.073452075    0.024415906 
  217000     2445  0.00055412273    0.057069392    0.073452075    0.024210459 
  218000     2438  0.00059444398    0.057277001    0.073452075    0.024271522 
  219000     2427  0.00060185261     0.05770054    0.073452075     0.02439648 
  220000     2416   0.0005945778    0.058064991    0.073452075    0.024316604 
  221000     2401  0.00052365032    0.058627268    0.073452075    0.024422862 
  222000     2391  0.00049952221      0.0589834    0.073452075    0.024106797 
  223000     2381  0.00050019277    0.059302401    0.073452075    0.024431077 
  224000     2371  0.00047029567    0.059752362    0.073452075    0.024438084 
  225000     2362  0.00045157064    0.060060656    0.073452075    0.024277604 
Loop time of 83.8734 on 2 procs for 163750 steps with 2362 atoms, finish time Fri Jun 12 15:48:37 2026


Pair  time (%) = 45.4507 (54.1896)
Neigh time (%) = 1.43393 (1.70964)
Comm  time (%) = 1.58095 (1.88493)
Outpt time (%) = 0.0301665 (0.0359667)
Other time (%) = 35.3777 (42.1799)

Nlocal:    1181 ave 1197 max 1165 min
Histogram: 1 0 0 0 0 0 0 0 0 1
Nghost:    189.5 ave 192 max 187 min
Histogram: 1 0 0 0 0 0 0 0 0 1
Neighs:    7283 ave 7405 max 7161 min
Histogram: 1 0 0 0 0 0 0 0 0 1

Total # of neighbors = 14566
Ave neighs/atom = 6.16681
Neighbor list builds = 1159
Dangerous builds = 0
variable mout equal f_ms[1]
print	"AUDIT discharge-end: crossed mass = ${mout} kg, atoms left = ${natoms}"
AUDIT discharge-end: crossed mass = 0.0600606555534222 kg, atoms left = 2362

write_dump all custom post/${TAG}_final.liggghts id type x y z vx vy vz omegax omegay omegaz radius
write_dump all custom post/dd2e92a3d305_s67867967_final.liggghts id type x y z vx vy vz omegax omegay omegaz radius
