LIGGGHTS (Version LIGGGHTS-PUBLIC 3.8.0, compiled 2026-06-11-14:52:41 by joshuamayo, git commit 3d5c00f20519e6bb6eb6756f51f1ad36564e649d)
Created orthogonal box = (-0.085 -0.025 -0.085) to (0.085 0.025 0.085)
  2 by 1 by 1 MPI processor grid
WARNING: 
	The contact model you specified is not located in any whitelist.
	Because of this the model will be run in an unoptimized version (increasing runtime by up to 20%).
	In order to optimize this model you have the following options:
		(i)  Run the genAutoExamplesWhitelist.sh script in your LIGGGHTS(R) source folder to automatically parse the input script
		(ii) Add the model combination by hand to your style_contact_model_user.whitelist that can be found in your LIGGGHTS(R) source folder
		(iii) Use the ENABLE_MODEL_* flag when building with cmake.
	If you perform one of the steps above LIGGGHTS(R) needs to be recompiled to generate the optimized code.

 (../contact_models.h:365)
WARNING: 
	The contact model you specified is not located in any whitelist.
	Because of this the model will be run in an unoptimized version (increasing runtime by up to 20%).
	In order to optimize this model you have the following options:
		(i)  Run the genAutoExamplesWhitelist.sh script in your LIGGGHTS(R) source folder to automatically parse the input script
		(ii) Add the model combination by hand to your style_contact_model_user.whitelist that can be found in your LIGGGHTS(R) source folder
		(iii) Use the ENABLE_MODEL_* flag when building with cmake.
	If you perform one of the steps above LIGGGHTS(R) needs to be recompiled to generate the optimized code.

 (../contact_models.h:365)
WARNING: 
	The contact model you specified is not located in any whitelist.
	Because of this the model will be run in an unoptimized version (increasing runtime by up to 20%).
	In order to optimize this model you have the following options:
		(i)  Run the genAutoExamplesWhitelist.sh script in your LIGGGHTS(R) source folder to automatically parse the input script
		(ii) Add the model combination by hand to your style_contact_model_user.whitelist that can be found in your LIGGGHTS(R) source folder
		(iii) Use the ENABLE_MODEL_* flag when building with cmake.
	If you perform one of the steps above LIGGGHTS(R) needs to be recompiled to generate the optimized code.

 (../contact_models.h:365)

Reading STL file '../../../../templates/meshes/drum_r0.075_l0.025_capped.stl' (mesh processing step 1/3) 
WARNING: 
	The contact model you specified is not located in any whitelist.
	Because of this the model will be run in an unoptimized version (increasing runtime by up to 20%).
	In order to optimize this model you have the following options:
		(i)  Run the genAutoExamplesWhitelist.sh script in your LIGGGHTS(R) source folder to automatically parse the input script
		(ii) Add the model combination by hand to your style_contact_model_user.whitelist that can be found in your LIGGGHTS(R) source folder
		(iii) Use the ENABLE_MODEL_* flag when building with cmake.
	If you perform one of the steps above LIGGGHTS(R) needs to be recompiled to generate the optimized code.

 (../contact_models.h:365)
Fix particledistribution/discrete (id pdd1): distribution based on mass%:
    pts1: d=3.400000e-03 (max. bounding sphere) mass%=25.000000%
    pts2: d=3.700000e-03 (max. bounding sphere) mass%=50.000000%
    pts3: d=4.000000e-03 (max. bounding sphere) mass%=25.000000%
Fix particledistribution/discrete (id pdd1): distribution based on number%:
    pts1: d=3.400000e-03 (max. bounding sphere) number%=31.585425%
    pts2: d=3.700000e-03 (max. bounding sphere) number%=49.017177%
    pts3: d=4.000000e-03 (max. bounding sphere) number%=19.397399%
Setting up run at Fri Jun 12 14:00:25 2026

Import and parallelization of mesh drum containing 192 triangle(s) successful
INFO: Resetting random generator for region bc
INFO: Particle insertion ins: inserting every 12500 steps
Memory usage per processor = 9.18191 Mbytes
    Step    Atoms         KinEng            rke          ts[1]          ts[2] 
       0        0              0              0              0              0 
insertion: proc 1 at 0 %
insertion: proc 0 at 0 %
insertion: proc 1 at 10 %
insertion: proc 0 at 10 %
insertion: proc 1 at 20 %
insertion: proc 0 at 20 %
insertion: proc 1 at 30 %
insertion: proc 0 at 30 %
insertion: proc 1 at 40 %
insertion: proc 0 at 40 %
insertion: proc 1 at 50 %
insertion: proc 0 at 50 %
insertion: proc 1 at 60 %
insertion: proc 0 at 60 %
insertion: proc 1 at 70 %
insertion: proc 0 at 70 %
insertion: proc 1 at 80 %
insertion: proc 0 at 80 %
insertion: proc 1 at 90 %
insertion: proc 0 at 90 %
INFO: Particle insertion ins: inserted 4230 particle templates (mass 1.567979e-01) at step 1
 - a total of 4230 particle templates (mass 1.567979e-01) inserted so far.
WARNING: Particle insertion: Less insertions than requested (../fix_insert.cpp:814)
    2000     4230    0.014990835  1.9773883e-05    0.073452075     0.02201216 
    4000     4230    0.023488405  3.5491721e-05    0.073452075    0.022838746 
    6000     4230    0.028080519  6.7269935e-05    0.073452075    0.023888476 
    8000     4230    0.024609639  0.00010879972    0.073452075    0.024649443 
   10000     4230    0.012192536  0.00011507485    0.073452075    0.025805481 
   12000     4230  0.00039746525  4.0411803e-05    0.073452075     0.02309095 
insertion: proc 0 at 0 %
insertion: proc 0 at 10 %
insertion: proc 0 at 20 %
insertion: proc 0 at 30 %
insertion: proc 0 at 40 %
insertion: proc 0 at 50 %
insertion: proc 0 at 60 %
insertion: proc 0 at 70 %
insertion: proc 0 at 80 %
insertion: proc 1 at 0 %
insertion: proc 0 at 90 %
insertion: proc 0 at 100 %
insertion: proc 1 at 10 %
insertion: proc 1 at 20 %
insertion: proc 1 at 30 %
insertion: proc 1 at 40 %
insertion: proc 1 at 50 %
insertion: proc 1 at 60 %
insertion: proc 1 at 70 %
insertion: proc 1 at 80 %
insertion: proc 1 at 90 %
insertion: proc 1 at 100 %
INFO: Particle insertion ins: inserted 370 particle templates (mass 1.346940e-02) at step 12501
 - a total of 4600 particle templates (mass 1.702674e-01) inserted so far.
   14000     4600   0.0011746366  8.4423468e-06    0.073452075    0.021010718 
   16000     4600   0.0018349049  8.1066236e-06    0.073452075    0.022395011 
   18000     4600   0.0021520462  1.7248943e-05    0.073452075    0.023503191 
   20000     4600   0.0019496471  2.2379708e-05    0.073452075    0.024434836 
   22000     4600   0.0011336665  2.4491994e-05    0.073452075    0.025242859 
   24000     4600  0.00010525302  1.5944351e-05    0.073452075    0.022873945 
   26000     4600  3.2513555e-05  5.3408923e-06    0.073452075    0.021617948 
   28000     4600   1.244622e-05  2.5555608e-06    0.073452075      0.0195898 
   30000     4600   4.263342e-06  1.1627661e-06    0.073452075    0.017348416 
   32000     4600  3.1187732e-06  7.6276443e-07    0.073452075    0.017525818 
   34000     4600  9.8499016e-07  3.7275993e-07    0.073452075    0.016857587 
   36000     4600  7.7643061e-07  3.6643837e-07    0.073452075    0.016789909 
   38000     4600  5.3370158e-07  2.1320835e-07    0.073452075    0.015211094 
   40000     4600  6.9862501e-07  1.7081576e-07    0.073452075    0.016912107 
   42000     4600  1.5790771e-07  8.3926746e-08    0.073452075    0.013087897 
   44000     4600  4.0233351e-08  3.7840065e-08    0.073452075    0.012054934 
   46000     4600  2.5976652e-08  3.9725623e-08    0.073452075    0.012489032 
   48000     4600  1.0595347e-07  6.8550223e-08    0.073452075    0.014874786 
   50000     4600  7.2905219e-09  4.9454611e-09    0.073452075    0.010189596 
   52000     4600  1.4053104e-09  4.6797339e-09    0.073452075   0.0092799492 
   54000     4600  6.6759176e-09  7.6783396e-09    0.073452075     0.01118385 
   56000     4600   1.369886e-08  1.4768291e-08    0.073452075    0.011362278 
   58000     4600   4.717659e-08  4.5595807e-08    0.073452075    0.012992687 
   60000     4600  4.1151368e-09  1.9566971e-09    0.073452075    0.010339089 
   62000     4600  1.5195518e-10  1.5836128e-09    0.073452075   0.0057830259 
   64000     4600  6.3712456e-11  2.2145932e-09    0.073452075   0.0055608949 
   66000     4600  4.6828951e-11  1.4834455e-09    0.073452075   0.0055021419 
   68000     4600  3.1102244e-11  1.2938001e-09    0.073452075   0.0057100319 
   70000     4600  1.4927698e-11  1.9361606e-09    0.073452075   0.0051660882 
   72000     4600  1.9623824e-11  1.5742478e-09    0.073452075   0.0053475239 
   74000     4600  2.2705198e-11  1.1961438e-09    0.073452075   0.0056056632 
   76000     4600  1.4768675e-11  1.9069136e-09    0.073452075   0.0055284851 
   78000     4600  2.1845546e-11  1.9290628e-09    0.073452075   0.0053898657 
   80000     4600  1.6693566e-11  1.0599942e-09    0.073452075   0.0054397713 
   82000     4600  8.7026799e-12  1.5782171e-09    0.073452075    0.004850759 
   84000     4600  1.6710278e-11  1.9084738e-09    0.073452075    0.005444269 
   86000     4600  1.8137242e-11  1.1841692e-09    0.073452075   0.0054434566 
   88000     4600  1.4752805e-11  1.5756196e-09    0.073452075   0.0054394074 
   90000     4600  1.5749181e-11  2.0432427e-09    0.073452075   0.0054351396 
   92000     4600  1.1433346e-11  1.0807738e-09    0.073452075   0.0050961315 
   94000     4600  8.8572801e-12  1.1441692e-09    0.073452075    0.004940471 
   96000     4600  1.8052448e-11  2.1532374e-09    0.073452075   0.0053960194 
   98000     4600   1.753033e-11  1.4592232e-09    0.073452075   0.0054405522 
  100000     4600   1.296527e-11  1.1205653e-09    0.073452075   0.0052849888 
Loop time of 43.2735 on 2 procs for 100000 steps with 4600 atoms, finish time Fri Jun 12 14:01:09 2026


Pair  time (%) = 28.6258 (66.151)
Neigh time (%) = 0.211232 (0.488133)
Comm  time (%) = 0.686656 (1.58678)
Outpt time (%) = 0.0162105 (0.0374606)
Other time (%) = 13.7336 (31.7367)

Nlocal:    2300 ave 2302 max 2298 min
Histogram: 1 0 0 0 0 0 0 0 0 1
Nghost:    239.5 ave 242 max 237 min
Histogram: 1 0 0 0 0 0 0 0 0 1
Neighs:    15529 ave 15627 max 15431 min
Histogram: 1 0 0 0 0 0 0 0 0 1

Total # of neighbors = 31058
Ave neighs/atom = 6.75174
Neighbor list builds = 180
Dangerous builds = 0
AUDIT settle: step 100000  atoms = 4600 (target 4600)  KE = 1.29652698158855e-11 J
Setting up run at Fri Jun 12 14:01:09 2026

Memory usage per processor = 14.7858 Mbytes
    Step    Atoms         KinEng            rke          ts[1]          ts[2] 
  100000     4600   1.296527e-11  1.1205653e-09    0.073452075   0.0052849888 
  102000     4600  6.3475051e-05  5.8786847e-08    0.073452075    0.016387864 
  104000     4600  6.2063087e-05  4.6068834e-08    0.073452075    0.013276938 
  106000     4600  6.2257437e-05   6.139396e-08    0.073452075    0.014113275 
  108000     4600  6.2433715e-05  3.5916374e-08    0.073452075    0.013091524 
  110000     4600  6.2274981e-05   3.511759e-08    0.073452075    0.013091531 
  112000     4600  6.2188505e-05  3.4983953e-08    0.073452075    0.013071575 
  114000     4600  6.2195856e-05  3.5279768e-08    0.073452075    0.013071251 
  116000     4600   6.221718e-05   3.532336e-08    0.073452075    0.013071026 
  118000     4600  6.2225369e-05  3.6377946e-08    0.073452075    0.013070804 
  120000     4600  6.2223746e-05  3.7870683e-08    0.073452075    0.013070549 
  122000     4600  6.2221323e-05   3.645347e-08    0.073452075    0.013070297 
  124000     4600  6.2221278e-05  3.9046602e-08    0.073452075    0.013070037 
  126000     4600  6.2226985e-05  4.2015089e-08    0.073452075    0.013069804 
  128000     4600  6.2237227e-05  5.5947074e-08    0.073452075     0.01318512 
  130000     4600  6.2216837e-05  4.4242738e-08    0.073452075    0.013140894 
  132000     4600  6.2203723e-05  3.4151636e-08    0.073452075    0.013068947 
  134000     4600  6.2222157e-05  3.5227643e-08    0.073452075    0.013068757 
  136000     4600  6.2213292e-05  3.6068599e-08    0.073452075    0.013068503 
  138000     4600  6.2218919e-05  3.4259931e-08    0.073452075    0.013068161 
  140000     4600  6.2212323e-05  3.5604712e-08    0.073452075    0.013067914 
  142000     4600  6.2211414e-05  3.4942613e-08    0.073452075    0.013067607 
  144000     4600   6.220477e-05  3.5638479e-08    0.073452075    0.013067324 
  146000     4600  6.2213922e-05  3.7565322e-08    0.073452075    0.013066966 
  148000     4600  6.2213281e-05  4.7918576e-08    0.073452075    0.013066655 
  150000     4600  6.2199451e-05  6.1133388e-08    0.073452075    0.013537644 
  152000     4600  6.2270368e-05  7.2117706e-08    0.073452075     0.01411242 
  154000     4600  6.2201034e-05  3.7119572e-08    0.073452075    0.013065223 
  156000     4600  6.2195269e-05  3.4750436e-08    0.073452075    0.013065082 
  158000     4600  6.2216375e-05  3.7417825e-08    0.073452075    0.013064774 
  160000     4600  6.2258902e-05  5.2241325e-08    0.073452075    0.013064474 
  162000     4600  6.2304807e-05  7.9155663e-08    0.073452075    0.014082886 
  164000     4600  6.2201422e-05  9.0752867e-08    0.073452075    0.013064527 
  166000     4600  6.2277527e-05  1.1850012e-07    0.073452075    0.013512408 
  168000     4600  6.2307798e-05  7.2256386e-08    0.073452075     0.01306446 
  170000     4600  6.2227799e-05   6.749071e-08    0.073452075    0.013161807 
  172000     4600  6.2387149e-05  1.2948892e-07    0.073452075    0.015313406 
  174000     4600   6.227737e-05  1.3373787e-07    0.073452075    0.014228747 
  176000     4600  6.2360259e-05  6.4879602e-08    0.073452075    0.013692581 
  178000     4600  6.2292747e-05   4.800556e-08    0.073452075    0.013064565 
  180000     4600  6.2241087e-05  5.5526644e-08    0.073452075    0.013152176 
  182000     4600  6.2296221e-05  8.0101608e-08    0.073452075    0.015292572 
  184000     4600  6.2864553e-05  9.1818283e-08    0.073452075    0.018100739 
  186000     4600  6.2512652e-05   1.441675e-07    0.073452075    0.016791545 
  188000     4600  6.2348554e-05   5.668587e-08    0.073452075     0.01306885 
  190000     4600  6.2253715e-05  4.2342062e-08    0.073452075    0.013064657 
  192000     4600  6.2214256e-05  6.6329365e-08    0.073452075    0.013706371 
  194000     4600  6.2268561e-05  9.4347879e-08    0.073452075    0.014313808 
  196000     4600  6.2776011e-05   8.038161e-08    0.073452075    0.017609111 
  198000     4600  6.2524189e-05  1.1347674e-07    0.073452075    0.015867402 
  200000     4600  6.2382791e-05  1.4131823e-07    0.073452075    0.015255245 
  202000     4600  6.2797207e-05  1.9390444e-07    0.073452075    0.016636254 
  204000     4600  6.2314918e-05   1.355918e-07    0.073452075    0.014967154 
  206000     4600  6.2965741e-05  2.3939675e-07    0.073452075    0.016532256 
  208000     4600   6.242407e-05  2.1708243e-07    0.073452075    0.016367813 
  210000     4600  6.2373808e-05  1.4026164e-07    0.073452075    0.016092394 
  212000     4600  6.3244967e-05  1.7288532e-07    0.073452075    0.018674382 
  214000     4600  6.2404854e-05  1.7628797e-07    0.073452075    0.016593098 
  216000     4600  6.2352001e-05  1.7329427e-07    0.073452075    0.015217507 
  218000     4600  6.2635277e-05  2.2948935e-07    0.073452075      0.0168466 
  220000     4600  6.3597628e-05  2.3960812e-07    0.073452075    0.019297826 
  222000     4600  6.3009062e-05   3.800454e-07    0.073452075    0.018476284 
  224000     4600  6.4503681e-05  4.3079839e-07    0.073452075    0.020289235 
  226000     4600  6.2520024e-05  2.4896738e-07    0.073452075    0.015784527 
  228000     4600  6.2862878e-05   2.822401e-07    0.073452075    0.015016288 
  230000     4600  6.3850412e-05  3.2109058e-07    0.073452075    0.014956537 
  232000     4600  6.6162393e-05  3.4558016e-07    0.073452075    0.015699369 
  234000     4600  6.8479048e-05  4.9841385e-07    0.073452075    0.017089581 
  236000     4600  7.0635708e-05  7.4078291e-07    0.073452075    0.017194547 
  238000     4600  7.8566286e-05  1.3121455e-06    0.073452075    0.018258535 
  240000     4600   8.579741e-05  1.6000412e-06    0.073452075    0.019248158 
  242000     4600  9.5773313e-05  2.0796732e-06    0.073452075     0.01917596 
  244000     4600  0.00010839842   2.122948e-06    0.073452075    0.019905183 
  246000     4600  0.00010556209  2.7192228e-06    0.073452075    0.019460868 
  248000     4600  0.00010341608  2.9698018e-06    0.073452075     0.01949801 
  250000     4600  0.00010800004  3.0608625e-06    0.073452075    0.020570022 
  252000     4600  0.00011828327  3.2064469e-06    0.073452075     0.02076829 
  254000     4600  0.00012934194  3.3524931e-06    0.073452075    0.020042595 
  256000     4600   0.0001495195  3.5038684e-06    0.073452075    0.020070098 
  258000     4600  0.00016275101   3.780631e-06    0.073452075    0.020499114 
  260000     4600  0.00017231151  3.7263018e-06    0.073452075    0.020281911 
  262000     4600  0.00018164341  3.9341816e-06    0.073452075    0.020002588 
  264000     4600  0.00020307116  4.1171782e-06    0.073452075    0.021146535 
  266000     4600  0.00020349655  4.8476567e-06    0.073452075    0.021546997 
  268000     4600  0.00019554014  5.6327319e-06    0.073452075    0.021401417 
  270000     4600  0.00021359102  5.9182509e-06    0.073452075     0.02099874 
  272000     4600  0.00023011566  5.8434612e-06    0.073452075    0.021772416 
  274000     4600  0.00022827612  6.7458545e-06    0.073452075    0.021594511 
  276000     4600  0.00024830963  7.5246801e-06    0.073452075    0.022166235 
  278000     4600  0.00023192035  7.3381393e-06    0.073452075    0.021799359 
  280000     4600  0.00021640761   6.493763e-06    0.073452075    0.022263195 
  282000     4600   0.0002175968  6.4010789e-06    0.073452075    0.021780176 
  284000     4600  0.00024208139  6.3702305e-06    0.073452075    0.022483481 
  286000     4600   0.0002314899  6.6146998e-06    0.073452075    0.022253779 
  288000     4600  0.00022907068  6.7604734e-06    0.073452075    0.022192992 
  290000     4600   0.0002306616  7.2844892e-06    0.073452075    0.021923452 
  292000     4600   0.0002470111  7.2644572e-06    0.073452075    0.021281183 
  294000     4600  0.00025639397  7.8810603e-06    0.073452075    0.021844057 
  296000     4600  0.00025178921  7.8484739e-06    0.073452075      0.0217535 
  298000     4600  0.00025565977  8.0563797e-06    0.073452075    0.021155851 
  300000     4600  0.00025541273  7.6127007e-06    0.073452075    0.021130809 
  302000     4600  0.00025407537  7.4802722e-06    0.073452075    0.021540236 
  304000     4600  0.00027537691  7.5274925e-06    0.073452075    0.022187883 
  306000     4600  0.00027672752  7.7055884e-06    0.073452075    0.021279333 
  308000     4600  0.00029492049  7.8564222e-06    0.073452075    0.021545372 
  310000     4600  0.00030051438    7.89002e-06    0.073452075    0.022547457 
  312000     4600  0.00030647535  8.1342004e-06    0.073452075    0.021915396 
  314000     4600  0.00030721066  9.2703459e-06    0.073452075    0.022055154 
  316000     4600  0.00032266754    9.15322e-06    0.073452075    0.021612487 
  318000     4600  0.00031114475  8.7842541e-06    0.073452075    0.021916722 
  320000     4600  0.00032182046  8.1851185e-06    0.073452075    0.022234932 
  322000     4600  0.00033053289  8.1217357e-06    0.073452075    0.021876446 
  324000     4600   0.0003471425  8.0495119e-06    0.073452075    0.021675809 
  326000     4600  0.00037147302  8.6411075e-06    0.073452075     0.02238083 
  328000     4600  0.00036601585  8.5092091e-06    0.073452075    0.021758623 
  330000     4600  0.00038371878  9.1915923e-06    0.073452075     0.02240326 
  332000     4600  0.00039232005  9.0827546e-06    0.073452075     0.02222804 
  334000     4600  0.00040767043  9.7147478e-06    0.073452075    0.022979823 
  336000     4600  0.00042410294  9.5001855e-06    0.073452075    0.022310212 
  338000     4600  0.00046761338  1.0648072e-05    0.073452075    0.022535504 
  340000     4600  0.00043236354  9.3628451e-06    0.073452075    0.022401814 
  342000     4600   0.0004570936  1.0043445e-05    0.073452075    0.022065354 
  344000     4600  0.00049102585  9.7089348e-06    0.073452075    0.022014926 
  346000     4600  0.00049064722  9.3679743e-06    0.073452075     0.02226777 
  348000     4600     0.00048958   1.035019e-05    0.073452075    0.023149566 
  350000     4600  0.00050110328  9.9347957e-06    0.073452075    0.021780571 
  352000     4600  0.00047443626   9.795442e-06    0.073452075    0.022726361 
  354000     4600  0.00046213188  1.0995575e-05    0.073452075    0.022181668 
  356000     4600  0.00045892274  1.1280603e-05    0.073452075    0.021622705 
  358000     4600  0.00040616612  1.1033249e-05    0.073452075    0.022056264 
  360000     4600  0.00038067167  9.5579761e-06    0.073452075    0.021836452 
  362000     4600  0.00037055718  8.8420155e-06    0.073452075    0.022685691 
  364000     4600  0.00034163813  8.6683398e-06    0.073452075    0.021871599 
  366000     4600  0.00031009453  8.1769748e-06    0.073452075    0.022782579 
  368000     4600  0.00028826493  8.2829395e-06    0.073452075    0.022081481 
  370000     4600  0.00025753574   7.377128e-06    0.073452075    0.022162403 
  372000     4600    0.000238929  7.6051777e-06    0.073452075    0.020688219 
  374000     4600  0.00023815841  6.6391775e-06    0.073452075    0.021423861 
  375000     4600  0.00024463678  6.9161716e-06    0.073452075    0.021423861 
Loop time of 169.761 on 2 procs for 275000 steps with 4600 atoms, finish time Fri Jun 12 14:03:58 2026


Pair  time (%) = 87.9291 (51.7958)
Neigh time (%) = 0.826094 (0.486622)
Comm  time (%) = 1.8696 (1.10132)
Outpt time (%) = 0.054239 (0.0319502)
Other time (%) = 79.0819 (46.5843)

Nlocal:    2300 ave 3186 max 1414 min
Histogram: 1 0 0 0 0 0 0 0 0 1
Nghost:    228 ave 233 max 223 min
Histogram: 1 0 0 0 0 0 0 0 0 1
Neighs:    15282.5 ave 21122 max 9443 min
Histogram: 1 0 0 0 0 0 0 0 0 1

Total # of neighbors = 30565
Ave neighs/atom = 6.64457
Neighbor list builds = 604
Dangerous builds = 0
Setting up run at Fri Jun 12 14:03:58 2026

Memory usage per processor = 14.8772 Mbytes
    Step    Atoms         KinEng            rke          ts[1]          ts[2] 
  375000     4600  0.00024463678  6.9161716e-06    0.073452075    0.021423861 
  376000     4600   0.0002352384  6.4680967e-06    0.073452075    0.020711295 
  378000     4600  0.00023655663  6.4655822e-06    0.073452075    0.020451341 
  380000     4600  0.00022408984  6.3604972e-06    0.073452075    0.020580507 
  382000     4600  0.00022832945  5.7661529e-06    0.073452075    0.020519932 
  384000     4600  0.00022747666  6.2906336e-06    0.073452075    0.021304925 
  386000     4600  0.00022381284  6.2944902e-06    0.073452075     0.02145506 
  388000     4600  0.00021177732  6.7681397e-06    0.073452075    0.021478813 
  390000     4600  0.00021355637  6.6983451e-06    0.073452075    0.021352694 
  392000     4600  0.00022347086  6.8082023e-06    0.073452075    0.020996323 
  394000     4600  0.00023868983  6.4126147e-06    0.073452075    0.020604293 
  396000     4600  0.00024004055   6.657752e-06    0.073452075    0.021330749 
  398000     4600  0.00024472934  6.5233326e-06    0.073452075    0.021674423 
  400000     4600  0.00026789953  6.9681425e-06    0.073452075    0.021922175 
  402000     4600  0.00026664164  7.3312232e-06    0.073452075    0.020729573 
  404000     4600   0.0002678446  7.1092645e-06    0.073452075    0.021725654 
  406000     4600  0.00025928459  6.8275958e-06    0.073452075    0.021724882 
  408000     4600  0.00025968435  7.2688104e-06    0.073452075    0.022101421 
  410000     4600  0.00028587853  7.7879023e-06    0.073452075    0.022055776 
  412000     4600  0.00028302477   7.051127e-06    0.073452075     0.02169583 
  414000     4600  0.00025962327  7.1736717e-06    0.073452075     0.02105763 
  416000     4600   0.0002794759  7.5451456e-06    0.073452075    0.020884527 
  418000     4600  0.00026894111  8.4091868e-06    0.073452075    0.021011462 
  420000     4600  0.00029229167   8.209872e-06    0.073452075    0.021476366 
  422000     4600  0.00030484456   7.313622e-06    0.073452075    0.021472173 
  424000     4600  0.00031666739  8.1368732e-06    0.073452075    0.021324036 
  426000     4600  0.00034583798   8.418328e-06    0.073452075    0.021503314 
  428000     4600  0.00035607189  1.0319415e-05    0.073452075    0.021698404 
  430000     4600  0.00033983003  9.0705936e-06    0.073452075    0.021553383 
  432000     4600  0.00033735865  8.7547339e-06    0.073452075    0.021564251 
  434000     4600  0.00031632164  8.0549454e-06    0.073452075    0.022006342 
  436000     4600  0.00034489186  8.3975538e-06    0.073452075    0.022241482 
  438000     4600  0.00036289293  9.1354365e-06    0.073452075    0.022805164 
  440000     4600  0.00034166555  8.9150946e-06    0.073452075    0.022303474 
  442000     4600  0.00033345545  9.4137145e-06    0.073452075    0.021987689 
  444000     4600  0.00034580156  9.3481459e-06    0.073452075     0.02168065 
  446000     4600  0.00032877201  8.9428221e-06    0.073452075    0.022052804 
  448000     4600  0.00031242836   9.589556e-06    0.073452075    0.021678164 
  450000     4600  0.00031133043  8.3495989e-06    0.073452075    0.022288711 
  452000     4600  0.00029236355  8.8842398e-06    0.073452075    0.021881296 
  454000     4600  0.00030245226  8.2909519e-06    0.073452075    0.021430518 
  456000     4600  0.00029018667  7.8010715e-06    0.073452075    0.021133964 
  458000     4600  0.00028286364  8.4132017e-06    0.073452075    0.021866205 
  460000     4600  0.00028936308  7.6020613e-06    0.073452075    0.021484118 
  462000     4600  0.00027560429   7.839119e-06    0.073452075    0.021954666 
  464000     4600  0.00028441635  7.8286625e-06    0.073452075    0.022273817 
  466000     4600  0.00029447499  8.1994548e-06    0.073452075    0.021684517 
  468000     4600  0.00028291806  6.9404505e-06    0.073452075    0.021246309 
  470000     4600  0.00028395346  7.8786993e-06    0.073452075    0.022078626 
  472000     4600   0.0002933547  7.9493935e-06    0.073452075    0.021609991 
  474000     4600  0.00033176033  8.3363508e-06    0.073452075    0.022297905 
  476000     4600  0.00034808957  8.7624027e-06    0.073452075    0.021775694 
  478000     4600  0.00035179213  8.4889958e-06    0.073452075    0.022054361 
  480000     4600  0.00033676226  8.4921991e-06    0.073452075      0.0221153 
  482000     4600  0.00031453772   8.119896e-06    0.073452075     0.02224486 
  484000     4600  0.00033092116  8.2109418e-06    0.073452075    0.021954385 
  486000     4600  0.00033019541  8.8825993e-06    0.073452075    0.022637452 
  488000     4600  0.00034295387  8.9116837e-06    0.073452075    0.022552758 
  490000     4600  0.00033762373  9.2636179e-06    0.073452075    0.021740935 
  492000     4600   0.0003388369  8.4241692e-06    0.073452075    0.021826231 
  494000     4600  0.00037568887  8.7173262e-06    0.073452075    0.022547416 
  496000     4600   0.0003797923  9.5933067e-06    0.073452075    0.023102742 
  498000     4600  0.00035120766  9.6616243e-06    0.073452075    0.022793059 
  500000     4600  0.00036354717  9.9066049e-06    0.073452075    0.023441655 
  502000     4600  0.00036919952  8.9555088e-06    0.073452075    0.022210175 
  504000     4600  0.00039622694  9.3025284e-06    0.073452075    0.022059283 
  506000     4600  0.00036020096  9.9872328e-06    0.073452075    0.021906871 
  508000     4600  0.00033189735  7.9296273e-06    0.073452075    0.022008273 
  510000     4600  0.00033015097  8.9488678e-06    0.073452075    0.021429244 
  512000     4600  0.00031858145  8.3671583e-06    0.073452075    0.022211765 
  514000     4600  0.00032852859  9.0219493e-06    0.073452075    0.023103388 
  516000     4600  0.00030443813  7.8493349e-06    0.073452075     0.02189315 
  518000     4600  0.00029012042  7.4992713e-06    0.073452075    0.021685509 
  520000     4600  0.00030394166  7.7835153e-06    0.073452075    0.022461376 
  522000     4600  0.00029734652  7.8568784e-06    0.073452075    0.021311495 
  524000     4600  0.00028792897   8.179766e-06    0.073452075    0.021427085 
  526000     4600  0.00031692714  8.5439511e-06    0.073452075    0.021347016 
  528000     4600  0.00033734594  8.3097407e-06    0.073452075    0.021300831 
  530000     4600   0.0003103905  7.6832252e-06    0.073452075    0.021225188 
  532000     4600   0.0003071924  7.8740459e-06    0.073452075    0.021267649 
  534000     4600   0.0003230822  7.9827738e-06    0.073452075     0.02206328 
  536000     4600  0.00033905911   8.258244e-06    0.073452075    0.021723821 
  538000     4600  0.00032654976  8.4988066e-06    0.073452075    0.021357831 
  540000     4600   0.0003606141  8.5469546e-06    0.073452075    0.022307629 
  542000     4600  0.00035381941  9.2604532e-06    0.073452075    0.022420969 
  544000     4600   0.0003724467  8.4185733e-06    0.073452075     0.02220775 
  546000     4600  0.00036065704  8.5126603e-06    0.073452075    0.022616348 
  548000     4600  0.00038495153  1.0211146e-05    0.073452075    0.022653841 
  550000     4600  0.00036820715  9.9287653e-06    0.073452075    0.022148083 
  552000     4600  0.00039057435  9.5639426e-06    0.073452075    0.022142969 
  554000     4600  0.00040595538  9.1699852e-06    0.073452075    0.022871424 
  556000     4600  0.00040096936   1.015025e-05    0.073452075    0.021389786 
  558000     4600  0.00040617896   9.016668e-06    0.073452075    0.021266374 
  560000     4600  0.00037421717  9.7220215e-06    0.073452075    0.021780216 
  562000     4600  0.00036246865  8.9916381e-06    0.073452075    0.021756668 
  564000     4600  0.00035705532  8.8209951e-06    0.073452075    0.021848825 
  566000     4600  0.00033803525  7.6287397e-06    0.073452075    0.021931942 
  568000     4600  0.00031776131  7.2605058e-06    0.073452075    0.021816869 
  570000     4600  0.00031998633  8.0985875e-06    0.073452075    0.021820093 
  572000     4600  0.00033562875   7.807822e-06    0.073452075    0.022273018 
  574000     4600  0.00029718585  8.0987388e-06    0.073452075    0.021679424 
  576000     4600  0.00030339322  8.1669774e-06    0.073452075     0.02267377 
  578000     4600  0.00030451332  9.1069433e-06    0.073452075    0.021948473 
  580000     4600  0.00026340704  8.8112872e-06    0.073452075    0.021218268 
  582000     4600  0.00028146521  7.7486533e-06    0.073452075    0.021760765 
  584000     4600  0.00028821438  7.4421599e-06    0.073452075    0.021466587 
  586000     4600  0.00027583369  7.8647547e-06    0.073452075      0.0214119 
  588000     4600    0.000268661  7.6476863e-06    0.073452075    0.021961255 
  590000     4600  0.00024756418  7.0783517e-06    0.073452075    0.021756289 
  592000     4600  0.00027052727   6.819124e-06    0.073452075    0.021956425 
  594000     4600  0.00027777334  7.6268135e-06    0.073452075    0.021327987 
  596000     4600  0.00025970057  7.5328382e-06    0.073452075    0.021533519 
  598000     4600  0.00024725998  7.0208787e-06    0.073452075    0.022262097 
  600000     4600  0.00023936321  7.9303136e-06    0.073452075    0.021426295 
  602000     4600  0.00022565462  7.1666084e-06    0.073452075    0.021463497 
  604000     4600  0.00023442156  7.6203008e-06    0.073452075    0.021927052 
  606000     4600  0.00021603233  7.7255991e-06    0.073452075    0.021429837 
  608000     4600   0.0001940685  7.1011763e-06    0.073452075    0.022183466 
  610000     4600  0.00021436871  7.0790788e-06    0.073452075    0.021588498 
  612000     4600   0.0002115268  6.7171692e-06    0.073452075    0.022513021 
  614000     4600  0.00022789521  7.1420042e-06    0.073452075    0.021324155 
  616000     4600  0.00024444363  7.1550451e-06    0.073452075    0.021821677 
  618000     4600  0.00023886786  7.3799863e-06    0.073452075    0.021762655 
  620000     4600  0.00026756296  7.4483169e-06    0.073452075    0.021742692 
  622000     4600  0.00026011065  7.5886693e-06    0.073452075    0.021915979 
  624000     4600  0.00026908609  7.1645705e-06    0.073452075    0.021362785 
  626000     4600  0.00028606274  7.1182173e-06    0.073452075    0.021368898 
  628000     4600  0.00029805853   8.023736e-06    0.073452075    0.021960911 
  630000     4600  0.00031251334  8.2207825e-06    0.073452075    0.022857986 
  632000     4600  0.00033375191  8.0660642e-06    0.073452075     0.02226195 
  634000     4600  0.00034183337  8.7884665e-06    0.073452075     0.02170622 
  636000     4600  0.00035820961  9.2762694e-06    0.073452075    0.022131262 
  638000     4600  0.00040674495  9.7244135e-06    0.073452075    0.022307092 
  640000     4600  0.00040809026  9.8537641e-06    0.073452075    0.023135274 
  642000     4600  0.00042506604  9.4276914e-06    0.073452075    0.022969089 
  644000     4600  0.00037722366  9.1541696e-06    0.073452075    0.023747872 
  646000     4600  0.00036254962  9.6910847e-06    0.073452075    0.021896369 
  648000     4600  0.00041875947  1.0197735e-05    0.073452075    0.021828799 
  650000     4600  0.00041678532   9.826622e-06    0.073452075    0.022078393 
  652000     4600  0.00041397321  9.9266441e-06    0.073452075    0.021405195 
  654000     4600  0.00043639334   1.066529e-05    0.073452075    0.022071174 
  656000     4600  0.00044363006  9.9026296e-06    0.073452075    0.022249784 
  658000     4600  0.00040909496  1.0799235e-05    0.073452075    0.021886214 
  660000     4600  0.00039250747  9.4656147e-06    0.073452075    0.021942518 
  662000     4600  0.00036021676  9.4575203e-06    0.073452075    0.022362232 
  664000     4600  0.00036506324  9.5636626e-06    0.073452075    0.022745099 
  666000     4600   0.0003429216  8.8514364e-06    0.073452075      0.0213595 
  668000     4600  0.00033615483  9.4044527e-06    0.073452075    0.021913484 
  670000     4600  0.00034561051   9.272109e-06    0.073452075    0.022403435 
  672000     4600  0.00032591449  9.1267955e-06    0.073452075    0.021876029 
  674000     4600  0.00030822487  8.6619491e-06    0.073452075    0.021493783 
  676000     4600  0.00031685821  8.1889392e-06    0.073452075    0.021878655 
  678000     4600  0.00032444078  8.3354801e-06    0.073452075    0.022038496 
  680000     4600  0.00033726347  8.4205651e-06    0.073452075    0.021845516 
  682000     4600  0.00032038114  7.8925098e-06    0.073452075    0.022017421 
  684000     4600  0.00031464544  8.6263631e-06    0.073452075    0.021649746 
  686000     4600  0.00030536065  8.0718834e-06    0.073452075     0.02095992 
  688000     4600  0.00030114741   7.450781e-06    0.073452075    0.021601925 
  690000     4600  0.00031426715  8.1837726e-06    0.073452075    0.021691002 
  692000     4600  0.00031541592  8.3214123e-06    0.073452075    0.021759748 
  694000     4600  0.00032689098  8.1341879e-06    0.073452075    0.022193661 
  696000     4600   0.0003291448  7.7710148e-06    0.073452075    0.021632534 
  698000     4600  0.00033921317  8.5754041e-06    0.073452075    0.021472747 
  700000     4600  0.00033407479  8.3942369e-06    0.073452075    0.021322383 
  702000     4600  0.00033561759  8.9316559e-06    0.073452075    0.022043162 
  704000     4600  0.00034572306  8.7703423e-06    0.073452075    0.021534464 
  706000     4600  0.00036161558  9.0218668e-06    0.073452075    0.021988055 
  708000     4600  0.00038614986  8.7841791e-06    0.073452075    0.022510315 
  710000     4600  0.00038699837  9.0199051e-06    0.073452075    0.021670107 
  712000     4600  0.00038780372  9.7296817e-06    0.073452075    0.021878078 
  714000     4600  0.00035263974  8.7915429e-06    0.073452075    0.021416845 
  716000     4600   0.0003718668  8.5073234e-06    0.073452075    0.021122945 
  718000     4600  0.00037547777  8.7543938e-06    0.073452075    0.021847326 
  720000     4600  0.00037915198  8.6207224e-06    0.073452075    0.021913617 
  722000     4600  0.00037835603  8.9601947e-06    0.073452075    0.021986393 
  724000     4600  0.00038643103  8.5881897e-06    0.073452075    0.022357611 
  726000     4600  0.00037649222  9.5270251e-06    0.073452075    0.022119001 
  728000     4600  0.00036416794  9.2776625e-06    0.073452075    0.022506081 
  730000     4600  0.00039792072  9.0717963e-06    0.073452075    0.021647305 
  732000     4600  0.00039335619  9.3272257e-06    0.073452075    0.022383128 
  734000     4600   0.0003736865  9.6447578e-06    0.073452075    0.021422781 
  736000     4600  0.00033810147  9.0104289e-06    0.073452075    0.021334686 
  738000     4600  0.00031354001  8.8519598e-06    0.073452075    0.021749972 
  740000     4600  0.00032511168  8.3341201e-06    0.073452075    0.021387061 
  742000     4600  0.00029516828  9.3226167e-06    0.073452075     0.02154541 
  744000     4600  0.00028116295  8.4698114e-06    0.073452075    0.021504963 
  746000     4600  0.00026632096  7.3450193e-06    0.073452075    0.022135386 
  748000     4600  0.00026457341   8.119145e-06    0.073452075    0.021649157 
  750000     4600  0.00029285535  8.0077968e-06    0.073452075    0.022104307 
  752000     4600  0.00027999499  9.0664101e-06    0.073452075    0.022280027 
  754000     4600  0.00027326438   8.064769e-06    0.073452075    0.021125155 
  756000     4600  0.00029438757  7.7728154e-06    0.073452075     0.02163896 
  758000     4600  0.00027818278  7.7151938e-06    0.073452075     0.02090223 
  760000     4600  0.00025202746  7.3693688e-06    0.073452075    0.021606936 
  762000     4600  0.00025295836  7.5717432e-06    0.073452075    0.021279538 
  764000     4600  0.00026178694  7.0523117e-06    0.073452075    0.021149283 
  766000     4600  0.00024865268   6.687147e-06    0.073452075    0.020615396 
  768000     4600  0.00024993636  7.0597858e-06    0.073452075    0.020703021 
  770000     4600  0.00025442116  7.0648806e-06    0.073452075    0.021283185 
  772000     4600  0.00026529008  7.0565277e-06    0.073452075    0.021475063 
  774000     4600   0.0002636078   6.229329e-06    0.073452075    0.022495062 
  775000     4600  0.00024216523  6.7818205e-06    0.073452075    0.022495062 
Loop time of 272.34 on 2 procs for 400000 steps with 4600 atoms, finish time Fri Jun 12 14:08:31 2026


Pair  time (%) = 126.806 (46.5617)
Neigh time (%) = 2.19482 (0.805911)
Comm  time (%) = 2.85488 (1.04828)
Outpt time (%) = 0.0745955 (0.0273905)
Other time (%) = 140.41 (51.5567)

Nlocal:    2300 ave 3259 max 1341 min
Histogram: 1 0 0 0 0 0 0 0 0 1
Nghost:    230.5 ave 234 max 227 min
Histogram: 1 0 0 0 0 0 0 0 0 1
Neighs:    15543.5 ave 22130 max 8957 min
Histogram: 1 0 0 0 0 0 0 0 0 1

Total # of neighbors = 31087
Ave neighs/atom = 6.75804
Neighbor list builds = 1617
Dangerous builds = 0
AUDIT measure-end: KE = 0.000242165230146931 J (continuous rolling -> nonzero, no spikes)
