LIGGGHTS (Version LIGGGHTS-PUBLIC 3.8.0, compiled 2026-06-11-14:52:41 by joshuamayo, git commit 3d5c00f20519e6bb6eb6756f51f1ad36564e649d)
Created orthogonal box = (-0.14 -0.14 0) to (0.14 0.14 0.2)
  1 by 2 by 1 MPI processor grid
WARNING: 
	The contact model you specified is not located in any whitelist.
	Because of this the model will be run in an unoptimized version (increasing runtime by up to 20%).
	In order to optimize this model you have the following options:
		(i)  Run the genAutoExamplesWhitelist.sh script in your LIGGGHTS(R) source folder to automatically parse the input script
		(ii) Add the model combination by hand to your style_contact_model_user.whitelist that can be found in your LIGGGHTS(R) source folder
		(iii) Use the ENABLE_MODEL_* flag when building with cmake.
	If you perform one of the steps above LIGGGHTS(R) needs to be recompiled to generate the optimized code.

 (../contact_models.h:365)
WARNING: 
	The contact model you specified is not located in any whitelist.
	Because of this the model will be run in an unoptimized version (increasing runtime by up to 20%).
	In order to optimize this model you have the following options:
		(i)  Run the genAutoExamplesWhitelist.sh script in your LIGGGHTS(R) source folder to automatically parse the input script
		(ii) Add the model combination by hand to your style_contact_model_user.whitelist that can be found in your LIGGGHTS(R) source folder
		(iii) Use the ENABLE_MODEL_* flag when building with cmake.
	If you perform one of the steps above LIGGGHTS(R) needs to be recompiled to generate the optimized code.

 (../contact_models.h:365)
WARNING: 
	The contact model you specified is not located in any whitelist.
	Because of this the model will be run in an unoptimized version (increasing runtime by up to 20%).
	In order to optimize this model you have the following options:
		(i)  Run the genAutoExamplesWhitelist.sh script in your LIGGGHTS(R) source folder to automatically parse the input script
		(ii) Add the model combination by hand to your style_contact_model_user.whitelist that can be found in your LIGGGHTS(R) source folder
		(iii) Use the ENABLE_MODEL_* flag when building with cmake.
	If you perform one of the steps above LIGGGHTS(R) needs to be recompiled to generate the optimized code.

 (../contact_models.h:365)
WARNING: 
	The contact model you specified is not located in any whitelist.
	Because of this the model will be run in an unoptimized version (increasing runtime by up to 20%).
	In order to optimize this model you have the following options:
		(i)  Run the genAutoExamplesWhitelist.sh script in your LIGGGHTS(R) source folder to automatically parse the input script
		(ii) Add the model combination by hand to your style_contact_model_user.whitelist that can be found in your LIGGGHTS(R) source folder
		(iii) Use the ENABLE_MODEL_* flag when building with cmake.
	If you perform one of the steps above LIGGGHTS(R) needs to be recompiled to generate the optimized code.

 (../contact_models.h:365)
WARNING: 
	The contact model you specified is not located in any whitelist.
	Because of this the model will be run in an unoptimized version (increasing runtime by up to 20%).
	In order to optimize this model you have the following options:
		(i)  Run the genAutoExamplesWhitelist.sh script in your LIGGGHTS(R) source folder to automatically parse the input script
		(ii) Add the model combination by hand to your style_contact_model_user.whitelist that can be found in your LIGGGHTS(R) source folder
		(iii) Use the ENABLE_MODEL_* flag when building with cmake.
	If you perform one of the steps above LIGGGHTS(R) needs to be recompiled to generate the optimized code.

 (../contact_models.h:365)
WARNING: 
	The contact model you specified is not located in any whitelist.
	Because of this the model will be run in an unoptimized version (increasing runtime by up to 20%).
	In order to optimize this model you have the following options:
		(i)  Run the genAutoExamplesWhitelist.sh script in your LIGGGHTS(R) source folder to automatically parse the input script
		(ii) Add the model combination by hand to your style_contact_model_user.whitelist that can be found in your LIGGGHTS(R) source folder
		(iii) Use the ENABLE_MODEL_* flag when building with cmake.
	If you perform one of the steps above LIGGGHTS(R) needs to be recompiled to generate the optimized code.

 (../contact_models.h:365)

Reading STL file '../../../templates/meshes/cylinder_r0.040_h0.100.stl' (mesh processing step 1/3) 
WARNING: 
	The contact model you specified is not located in any whitelist.
	Because of this the model will be run in an unoptimized version (increasing runtime by up to 20%).
	In order to optimize this model you have the following options:
		(i)  Run the genAutoExamplesWhitelist.sh script in your LIGGGHTS(R) source folder to automatically parse the input script
		(ii) Add the model combination by hand to your style_contact_model_user.whitelist that can be found in your LIGGGHTS(R) source folder
		(iii) Use the ENABLE_MODEL_* flag when building with cmake.
	If you perform one of the steps above LIGGGHTS(R) needs to be recompiled to generate the optimized code.

 (../contact_models.h:365)
Fix particledistribution/discrete (id pdd1): distribution based on mass%:
    pts1: d=3.400000e-03 (max. bounding sphere) mass%=25.000000%
    pts2: d=3.700000e-03 (max. bounding sphere) mass%=50.000000%
    pts3: d=4.000000e-03 (max. bounding sphere) mass%=25.000000%
Fix particledistribution/discrete (id pdd1): distribution based on number%:
    pts1: d=3.400000e-03 (max. bounding sphere) number%=31.585425%
    pts2: d=3.700000e-03 (max. bounding sphere) number%=49.017177%
    pts3: d=4.000000e-03 (max. bounding sphere) number%=19.397399%
Setting up run at Thu Jun 11 20:35:50 2026

Import and parallelization of mesh cyl containing 96 triangle(s) successful
INFO: Resetting random generator for region bc
INFO: Particle insertion ins: inserting every 0 steps
Memory usage per processor = 10.4417 Mbytes
    Step    Atoms         KinEng            rke          ts[1]          ts[2] 
       0        0              0              0              0              0 
insertion: proc 0 at 0 %
insertion: proc 1 at 0 %
insertion: proc 0 at 10 %
insertion: proc 1 at 10 %
insertion: proc 0 at 20 %
insertion: proc 1 at 20 %
insertion: proc 0 at 30 %
insertion: proc 1 at 30 %
insertion: proc 0 at 40 %
insertion: proc 1 at 40 %
insertion: proc 0 at 50 %
insertion: proc 1 at 50 %
insertion: proc 0 at 60 %
insertion: proc 1 at 60 %
insertion: proc 0 at 70 %
insertion: proc 1 at 70 %
insertion: proc 0 at 80 %
insertion: proc 1 at 80 %
insertion: proc 0 at 90 %
insertion: proc 1 at 90 %
insertion: proc 0 at 100 %
insertion: proc 1 at 100 %
INFO: Particle insertion ins: inserted 4000 particle templates (mass 1.456172e-01) at step 1
 - a total of 4000 particle templates (mass 1.456172e-01) inserted so far.
    2000     4000    0.013678502  5.7296541e-05    0.073452075    0.021391448 
    4000     4000    0.018890479  0.00016739698    0.073452075    0.022846527 
    6000     4000    0.018468056  0.00026455507    0.073452075    0.023750072 
    8000     4000   0.0060273348  0.00040111296    0.073452075    0.024724418 
   10000     4000  0.00023944034  7.1662896e-05    0.073452075     0.02087938 
   12000     4000  5.1278967e-05  1.8937818e-05    0.073452075    0.020371952 
   14000     4000  1.5067427e-05  7.8522539e-06    0.073452075    0.018448985 
   16000     4000  7.0359042e-06  3.7415244e-06    0.073452075    0.017119633 
   18000     4000  4.1914028e-06  2.4762353e-06    0.073452075    0.017387375 
   20000     4000  1.9912611e-06  1.6310596e-06    0.073452075    0.016422233 
   22000     4000  8.1937703e-07  9.6344177e-07    0.073452075     0.01469538 
   24000     4000  4.0408227e-07  5.3567362e-07    0.073452075    0.014387338 
   26000     4000  4.6362447e-07  5.8983864e-07    0.073452075    0.015211594 
   28000     4000  3.2571475e-07  3.3481143e-07    0.073452075    0.014176681 
   30000     4000  2.0355197e-07  2.2154313e-07    0.073452075    0.014893867 
   32000     4000  5.8368239e-08  1.2533797e-07    0.073452075    0.012457047 
   34000     4000  3.4724155e-08  1.0305708e-07    0.073452075    0.012720773 
   36000     4000  1.1257799e-08  8.7837953e-08    0.073452075    0.011117558 
   38000     4000  1.0746786e-08  8.6964973e-08    0.073452075    0.011975274 
   40000     4000  3.7723779e-08   1.017542e-07    0.073452075    0.013775565 
   42000     4000   2.391723e-08  1.1693523e-07    0.073452075    0.013153834 
   44000     4000  1.3777052e-09  8.2186401e-08    0.073452075   0.0087882292 
   46000     4000  3.2119655e-09  8.2555853e-08    0.073452075     0.01010924 
   48000     4000  1.1481824e-08  9.0037084e-08    0.073452075    0.011657186 
   50000     4000  3.5360844e-09  8.2714891e-08    0.073452075    0.010272396 
   50001     4000  3.5410756e-09  8.2717406e-08    0.073452075    0.010272396 
Loop time of 14.7245 on 2 procs for 50001 steps with 4000 atoms, finish time Thu Jun 11 20:36:04 2026


Pair  time (%) = 11.0086 (74.7639)
Neigh time (%) = 0.0943505 (0.640772)
Comm  time (%) = 0.354424 (2.40703)
Outpt time (%) = 0.0242595 (0.164756)
Other time (%) = 3.24286 (22.0235)

Nlocal:    2000 ave 2004 max 1996 min
Histogram: 1 0 0 0 0 0 0 0 0 1
Nghost:    391.5 ave 399 max 384 min
Histogram: 1 0 0 0 0 0 0 0 0 1
Neighs:    13714.5 ave 13720 max 13709 min
Histogram: 1 0 0 0 0 0 0 0 0 1

Total # of neighbors = 27429
Ave neighs/atom = 6.85725
Neighbor list builds = 79
Dangerous builds = 0
AUDIT settle: step 50001  KE = 3.541075612161e-09 J  (target < 2e-8 J for quasi-static)
Setting up run at Thu Jun 11 20:36:04 2026

Memory usage per processor = 17.4463 Mbytes
    Step    Atoms         KinEng            rke          ts[1]          ts[2] 
   50001     4000  3.5410756e-09  8.2717406e-08    0.073452075    0.010272396 
   52000     4000   1.264902e-06  6.8210775e-07    0.073452075    0.015719315 
   54000     4000  1.2414454e-06  8.7436726e-07    0.073452075    0.017009241 
   56000     4000  1.3560495e-06  1.1244381e-06    0.073452075    0.015561867 
   58000     4000  1.1383275e-06  9.0130577e-07    0.073452075    0.014888084 
   60000     4000  1.4070351e-06  1.1966628e-06    0.073452075    0.016018474 
   62000     4000  1.6656959e-06  8.4324711e-07    0.073452075    0.017935229 
   64000     4000  1.1214488e-06  8.1692312e-07    0.073452075    0.016556035 
   66000     4000  9.7588858e-07  7.4556977e-07    0.073452075    0.014300909 
   68000     4000  1.1290496e-06  7.8242566e-07    0.073452075      0.0155722 
   70000     4000  2.4249349e-06  9.6796003e-07    0.073452075    0.017810767 
   72000     4000  1.0309511e-06  8.0632637e-07    0.073452075    0.014902847 
   74000     4000   1.079958e-06  7.4783378e-07    0.073452075    0.015849002 
   76000     4000  1.8558211e-06  9.0128866e-07    0.073452075    0.017235963 
   78000     4000  8.9321633e-07  7.9560264e-07    0.073452075    0.014434044 
   80000     4000  1.9675735e-06  9.2201963e-07    0.073452075    0.016925493 
   82000     4000  8.4747029e-07   6.984342e-07    0.073452075    0.014304144 
   84000     4000  8.0219877e-07  8.0328572e-07    0.073452075    0.013853832 
   86000     4000  7.7630781e-07  9.1152317e-07    0.073452075    0.014833958 
   88000     4000  8.7073253e-07  7.7716104e-07    0.073452075    0.015642176 
   90000     4000  6.6447375e-07  5.1790576e-07    0.073452075    0.014699116 
   92000     4000  7.4308019e-07    6.00404e-07    0.073452075    0.015619177 
   94000     4000  1.2614241e-06  8.0461884e-07    0.073452075    0.015509039 
   96000     4000  2.1860942e-06  1.1877581e-06    0.073452075    0.015804911 
   98000     4000  1.4116502e-06  1.1156689e-06    0.073452075    0.016853732 
  100000     4000   1.393848e-06   1.172557e-06    0.073452075    0.016595396 
  102000     4000  1.6089837e-06  9.9758668e-07    0.073452075     0.01639434 
  104000     4000  2.1844797e-06  1.0629757e-06    0.073452075    0.017422842 
  106000     4000  2.7779075e-06  1.0055907e-06    0.073452075    0.018036045 
  108000     4000  1.7228343e-06  1.1223453e-06    0.073452075    0.016093884 
  110000     4000  2.6124089e-06  1.2582837e-06    0.073452075    0.015987213 
  112000     4000  1.3718706e-06  1.1411265e-06    0.073452075    0.016102429 
  114000     4000  1.7425821e-06  1.1598536e-06    0.073452075    0.017259659 
  116000     4000  3.8000411e-06  1.8213002e-06    0.073452075    0.017180779 
  118000     4000  4.8118575e-06  2.2480426e-06    0.073452075    0.017850522 
  120000     4000  3.6464671e-06  1.8253403e-06    0.073452075    0.016995374 
  122000     4000  4.3585005e-06  1.7909924e-06    0.073452075    0.018370504 
  124000     4000  7.0655404e-06   2.642098e-06    0.073452075    0.018965503 
  126000     4000  5.4635333e-06  2.2558715e-06    0.073452075    0.019515537 
  128000     4000  7.7457192e-06  2.9428738e-06    0.073452075    0.018201476 
  130000     4000  4.7483193e-06   2.084292e-06    0.073452075     0.01818059 
  132000     4000  9.4256127e-06  2.8440289e-06    0.073452075     0.01879247 
  134000     4000  7.5839585e-06  3.6429281e-06    0.073452075    0.018259667 
  136000     4000  1.0934485e-05   3.920169e-06    0.073452075    0.018789997 
  138000     4000  1.1002344e-05  3.0910048e-06    0.073452075    0.019289874 
  140000     4000  1.0628292e-05  3.7423952e-06    0.073452075     0.01840023 
  142000     4000  9.6344537e-06    3.83398e-06    0.073452075    0.018861256 
  144000     4000  6.5139188e-06  3.1077565e-06    0.073452075    0.017648349 
  146000     4000  5.9432656e-06  2.9841398e-06    0.073452075    0.017241328 
  148000     4000   1.031462e-05  3.6436855e-06    0.073452075    0.018192907 
  150000     4000  9.0528285e-06  3.5632637e-06    0.073452075    0.017784146 
  152000     4000  1.2887196e-05  3.9246239e-06    0.073452075    0.019496339 
  154000     4000   1.021617e-05  4.1821648e-06    0.073452075    0.018674372 
  156000     4000  1.0694088e-05  4.1532632e-06    0.073452075    0.018603313 
  158000     4000  1.0447147e-05   3.520616e-06    0.073452075    0.019009165 
  160000     4000  9.9593739e-06  3.7825049e-06    0.073452075    0.017984457 
  162000     4000  1.2485052e-05  5.1408862e-06    0.073452075    0.018123538 
  164000     4000  1.6194791e-05  4.9400647e-06    0.073452075    0.018760046 
  166000     4000   1.783398e-05  5.9629053e-06    0.073452075    0.018840587 
  168000     4000  2.2451617e-05  6.5736851e-06    0.073452075    0.019388982 
  170000     4000  2.0893476e-05  6.6149959e-06    0.073452075    0.018545566 
  172000     4000  1.5197562e-05  5.7890694e-06    0.073452075     0.01936904 
  174000     4000  1.8638938e-05  5.4110671e-06    0.073452075    0.019872667 
  176000     4000  1.8084998e-05  6.0897899e-06    0.073452075    0.019131394 
  178000     4000  1.2942993e-05  5.0014536e-06    0.073452075    0.019048295 
  180000     4000  1.7120483e-05  5.4209657e-06    0.073452075    0.019835625 
  182000     4000  1.5580757e-05  5.9462706e-06    0.073452075    0.019372317 
  184000     4000  1.6217369e-05  5.8939899e-06    0.073452075      0.0184316 
  186000     4000  2.3348805e-05  6.8810702e-06    0.073452075    0.019531043 
  188000     4000  3.3236506e-05  9.1865967e-06    0.073452075    0.019283323 
  190000     4000  4.0153337e-05  1.0828068e-05    0.073452075    0.019043613 
  192000     4000  4.5587964e-05  1.1530902e-05    0.073452075    0.019665887 
  194000     4000  3.1210187e-05  9.6789329e-06    0.073452075    0.018231187 
  196000     4000  3.0930958e-05  9.5798601e-06    0.073452075    0.019443936 
  198000     4000  3.2017389e-05  9.9591691e-06    0.073452075    0.019218889 
  200000     4000  2.3711731e-05  8.3432051e-06    0.073452075    0.018762023 
  202000     4000  2.5162877e-05  8.6195764e-06    0.073452075    0.018750249 
  204000     4000  2.7160793e-05  9.4646524e-06    0.073452075    0.019057521 
  206000     4000  2.1860578e-05  7.5269101e-06    0.073452075    0.019336491 
  208000     4000  2.2682415e-05   8.014922e-06    0.073452075     0.01986841 
  210000     4000  2.9587745e-05  8.3841934e-06    0.073452075    0.019620622 
  212000     4000  3.2155516e-05  9.9744247e-06    0.073452075    0.019212952 
  214000     4000  3.0312985e-05  9.3389011e-06    0.073452075    0.020134346 
  216000     4000  2.9982975e-05  1.0068301e-05    0.073452075    0.019014971 
  218000     4000  3.7950307e-05  1.0738539e-05    0.073452075    0.019754479 
  220000     4000    4.97773e-05  1.2829632e-05    0.073452075    0.019733161 
  222000     4000  6.0768288e-05  1.5586291e-05    0.073452075    0.019112495 
  224000     4000   7.260594e-05  1.6544266e-05    0.073452075    0.019596636 
  226000     4000  7.5491567e-05  1.5919583e-05    0.073452075    0.019994142 
  228000     4000  6.6337604e-05  1.6385788e-05    0.073452075    0.019201032 
  230000     4000  6.8604551e-05   1.678075e-05    0.073452075    0.019586117 
  232000     4000  5.7672464e-05  1.6376117e-05    0.073452075    0.019708309 
  234000     4000  5.2068216e-05   1.440743e-05    0.073452075    0.020052577 
  236000     4000  5.6177775e-05  1.4400924e-05    0.073452075    0.019383445 
  238000     4000  5.6114767e-05  1.3771712e-05    0.073452075    0.019546914 
  240000     4000  4.4400443e-05  1.3297551e-05    0.073452075    0.018414449 
  242000     4000  5.2506665e-05   1.375212e-05    0.073452075      0.0189719 
  244000     4000  5.8592129e-05  1.4925983e-05    0.073452075    0.018925095 
  246000     4000  6.4396855e-05  1.5697871e-05    0.073452075    0.018482298 
  248000     4000   7.073465e-05  1.6798115e-05    0.073452075    0.019509764 
  250000     4000  7.4599635e-05  1.7232698e-05    0.073452075    0.019662679 
  252000     4000  6.7969205e-05  1.5897958e-05    0.073452075    0.019051359 
  254000     4000  6.3676315e-05  1.6303123e-05    0.073452075    0.019284684 
  256000     4000  5.7212369e-05  1.5702331e-05    0.073452075     0.01855542 
  258000     4000  5.2293803e-05  1.5399141e-05    0.073452075    0.018639081 
  260000     4000  6.4168893e-05  1.5815445e-05    0.073452075    0.019601196 
  262000     4000  6.4703973e-05  1.6046468e-05    0.073452075    0.019608705 
  264000     4000  7.8139123e-05  1.7742239e-05    0.073452075    0.020385693 
  266000     4000  7.7914306e-05  1.8044905e-05    0.073452075    0.020422598 
  268000     4000  7.0052126e-05  1.7613079e-05    0.073452075    0.019103822 
  270000     4000  7.6913718e-05  1.7166639e-05    0.073452075     0.01957442 
  272000     4000  7.0769237e-05  1.7878615e-05    0.073452075    0.019771382 
  274000     4000  5.8488243e-05  1.6078029e-05    0.073452075    0.019366533 
  276000     4000  5.8116499e-05    1.54304e-05    0.073452075    0.019985426 
  278000     4000  5.8187679e-05  1.4872506e-05    0.073452075    0.019055949 
  280000     4000  5.8957489e-05  1.5950237e-05    0.073452075    0.018802737 
  282000     4000   5.242945e-05  1.4057035e-05    0.073452075    0.019262512 
  284000     4000  5.2893993e-05   1.482847e-05    0.073452075    0.019157315 
  286000     4000  6.0982004e-05  1.5889005e-05    0.073452075     0.01957569 
  288000     4000  5.9136089e-05  1.5908007e-05    0.073452075    0.019738453 
  290000     4000  6.4684587e-05  1.6254539e-05    0.073452075    0.019990464 
  292000     4000  7.8773553e-05   1.725036e-05    0.073452075     0.01958959 
  294000     4000  7.0323421e-05  1.7623926e-05    0.073452075    0.019708173 
  296000     4000  6.5684937e-05   1.686075e-05    0.073452075    0.019622159 
  298000     4000   6.906256e-05  1.7078869e-05    0.073452075    0.019404478 
  300000     4000  6.9673631e-05  1.7749643e-05    0.073452075     0.01865907 
  302000     4000  6.8900658e-05  1.7376792e-05    0.073452075    0.018732467 
  304000     4000  6.4928028e-05  1.6496615e-05    0.073452075    0.019332787 
  306000     4000  6.4577404e-05  1.6209058e-05    0.073452075    0.019275917 
  308000     4000  6.4836032e-05   1.603418e-05    0.073452075    0.020698208 
  310000     4000  5.8929681e-05  1.4764693e-05    0.073452075    0.019456022 
  312000     4000  5.2166979e-05  1.4619671e-05    0.073452075    0.019359568 
  314000     4000  4.7153754e-05  1.4239845e-05    0.073452075    0.019575273 
  316000     4000  5.3341083e-05  1.4386974e-05    0.073452075    0.018983125 
  318000     4000  4.8220967e-05  1.3392096e-05    0.073452075    0.019187883 
  320000     4000  5.0336309e-05  1.4253841e-05    0.073452075    0.019780957 
  322000     4000   5.297649e-05  1.3397765e-05    0.073452075    0.019546882 
  324000     4000  5.2503013e-05  1.3553576e-05    0.073452075    0.019357569 
  326000     4000  5.1545458e-05  1.4146037e-05    0.073452075    0.019270154 
  328000     4000  5.5528132e-05  1.4353376e-05    0.073452075    0.019577633 
  330000     4000  4.8909967e-05  1.2477375e-05    0.073452075    0.019107722 
  332000     4000  4.4022638e-05  1.2788602e-05    0.073452075    0.019301785 
  334000     4000  4.8830034e-05   1.279577e-05    0.073452075    0.019775513 
  336000     4000  4.2035286e-05  1.2871507e-05    0.073452075    0.019683138 
  338000     4000  3.7040773e-05  1.1288874e-05    0.073452075    0.018621704 
  340000     4000  3.1100276e-05  1.0486273e-05    0.073452075    0.018554957 
  342000     4000  2.6159294e-05   9.905257e-06    0.073452075    0.018479839 
  344000     4000  2.1279003e-05  8.1579073e-06    0.073452075    0.019012715 
  346000     4000   1.575334e-05  6.4623995e-06    0.073452075    0.018048838 
  348000     4000  1.4311928e-05  5.6850552e-06    0.073452075    0.018654122 
  350000     4000  1.1575084e-05  4.9518486e-06    0.073452075    0.018705236 
  352000     4000  8.4874856e-06   3.968856e-06    0.073452075    0.017300841 
  354000     4000   8.806187e-06  3.8879016e-06    0.073452075    0.018069429 
  356000     4000  6.8150027e-06  2.7805513e-06    0.073452075    0.018523623 
  358000     4000  5.7531142e-06  2.5182552e-06    0.073452075    0.018303206 
  360000     4000  4.2539051e-06  1.7132955e-06    0.073452075    0.017853659 
  362000     4000  2.3211423e-06  1.2528999e-06    0.073452075    0.017441687 
  364000     4000  2.3516944e-06  1.0865445e-06    0.073452075    0.018606864 
  366000     4000  1.8095499e-06  9.5148878e-07    0.073452075    0.017656046 
  368000     4000  1.6836793e-06  8.5652221e-07    0.073452075    0.017841063 
  370000     4000  1.5955988e-06  7.6637815e-07    0.073452075    0.016958986 
  372000     4000  1.6453662e-06  9.3936173e-07    0.073452075    0.016883347 
  374000     4000  1.1268865e-06  6.7791705e-07    0.073452075    0.016233716 
  376000     4000  1.0581987e-06   8.691035e-07    0.073452075    0.016215167 
  378000     4000  4.0842886e-07  3.7229444e-07    0.073452075    0.015144686 
  380000     4000  1.5398862e-07  2.0416253e-07    0.073452075    0.013476929 
  382000     4000  5.4010859e-08  1.5626381e-07    0.073452075    0.012421056 
  384000     4000  9.4144852e-08  1.7583863e-07    0.073452075    0.013359151 
  386000     4000  1.1710562e-07  1.6976654e-07    0.073452075    0.013763592 
  388000     4000  1.9233525e-08    1.22896e-07    0.073452075    0.011058099 
  390000     4000   2.275009e-08  1.2968758e-07    0.073452075    0.012213504 
  392000     4000  1.4318917e-08  1.2129105e-07    0.073452075    0.012286273 
  394000     4000  3.6480662e-08  1.2732652e-07    0.073452075     0.01374114 
  396000     4000  1.7498918e-10  1.0918914e-07    0.073452075   0.0087472981 
  398000     4000  5.0460172e-11  1.0912017e-07    0.073452075   0.0087076114 
  400000     4000  3.3445391e-11  1.0911782e-07    0.073452075   0.0087058695 
  402000     4000  1.6646048e-11  1.0910026e-07    0.073452075   0.0087029793 
  404000     4000  7.5925632e-12  1.0911146e-07    0.073452075   0.0087007826 
  406000     4000   6.395119e-12  1.0909109e-07    0.073452075   0.0086853584 
  408000     4000  7.0020705e-12  1.0911035e-07    0.073452075   0.0087029055 
  410000     4000  4.0874491e-12  1.0909197e-07    0.073452075   0.0086952347 
  412000     4000  1.6948803e-12  1.0910924e-07    0.073452075   0.0086880971 
  414000     4000   2.788097e-12  1.0908792e-07    0.073452075   0.0086993811 
  416000     4000  2.1766279e-12  1.0911023e-07    0.073452075    0.008693032 
  418000     4000  1.3218294e-12  1.0908288e-07    0.073452075   0.0086840539 
  420000     4000  1.8501239e-12  1.0911205e-07    0.073452075   0.0086978353 
  422000     4000  1.1697171e-12  1.0908418e-07    0.073452075   0.0086886319 
  424000     4000  7.5223561e-13  1.0910549e-07    0.073452075    0.008685007 
  426000     4000  1.0188264e-12  1.0908502e-07    0.073452075   0.0086949958 
  428000     4000  9.1298937e-13   1.091065e-07    0.073452075   0.0086860055 
  430000     4000  7.1971559e-13  1.0908242e-07    0.073452075   0.0086827827 
  432000     4000  7.6191569e-13  1.0910689e-07    0.073452075   0.0086930508 
  434000     4000  5.1742975e-13  1.0908313e-07    0.073452075   0.0086833597 
  436000     4000  6.8502103e-13   1.091031e-07    0.073452075   0.0086841722 
  438000     4000  7.6948732e-13  1.0908598e-07    0.073452075   0.0086909594 
  440000     4000  5.3854718e-13  1.0910058e-07    0.073452075   0.0086836562 
  442000     4000  4.4160549e-13  1.0908601e-07    0.073452075   0.0086809186 
  444000     4000  6.1670881e-13  1.0909936e-07    0.073452075   0.0086890032 
  446000     4000   4.278853e-13  1.0908733e-07    0.073452075   0.0086805411 
  448000     4000  3.5607225e-13  1.0909519e-07    0.073452075    0.008682437 
  450000     4000  5.1963212e-13  1.0909032e-07    0.073452075   0.0086870587 
  452000     4000  3.8946844e-13  1.0909332e-07    0.073452075   0.0086815386 
  454000     4000  3.6995594e-13   1.090918e-07    0.073452075   0.0086807393 
  456000     4000  3.4363587e-13  1.0909119e-07    0.073452075   0.0086851963 
  458000     4000  2.6768177e-13  1.0909358e-07    0.073452075   0.0086815878 
  460000     4000  3.1130341e-13  1.0908801e-07    0.073452075   0.0086794769 
  462000     4000  3.7666301e-13  1.0909695e-07    0.073452075   0.0086837425 
  464000     4000  1.9013407e-13  1.0908542e-07    0.073452075   0.0086783383 
  466000     4000  2.9708625e-13  1.0909823e-07    0.073452075   0.0086830972 
  468000     4000  2.4282937e-13  1.0908392e-07    0.073452075   0.0086822121 
  470000     4000  2.5146002e-13  1.0909961e-07    0.073452075   0.0086837189 
  472000     4000  1.9416581e-13  1.0908178e-07    0.073452075   0.0086787893 
  474000     4000   2.705455e-13  1.0910137e-07    0.073452075    0.008684197 
  476000     4000  1.5501834e-13  1.0907975e-07    0.073452075   0.0086789064 
  478000     4000  2.1285259e-13  1.0910194e-07    0.073452075   0.0086845749 
  480000     4000  1.3448654e-13  1.0907902e-07    0.073452075   0.0086797491 
  482000     4000   1.944419e-13  1.0910257e-07    0.073452075   0.0086848139 
  484000     4000  1.6683916e-13  1.0907858e-07    0.073452075   0.0086797025 
  486000     4000  2.2981325e-13  1.0910323e-07    0.073452075   0.0086848749 
  488000     4000  8.3827921e-14  1.0907815e-07    0.073452075   0.0086796501 
  490000     4000   1.891452e-13  1.0910272e-07    0.073452075   0.0086848154 
  492000     4000  1.2997151e-13  1.0907887e-07    0.073452075   0.0086796113 
  494000     4000  1.7299742e-13   1.091019e-07    0.073452075   0.0086846072 
  496000     4000  1.2126154e-13  1.0907968e-07    0.073452075   0.0086795376 
  498000     4000  1.5888407e-13  1.0910076e-07    0.073452075   0.0086842828 
  500000     4000  9.5800025e-14  1.0908054e-07    0.073452075   0.0086794046 
  502000     4000  1.7229744e-13   1.090992e-07    0.073452075   0.0086838452 
  504000     4000  1.1562731e-13  1.0908231e-07    0.073452075   0.0086793371 
  506000     4000  1.3257243e-13  1.0909705e-07    0.073452075   0.0086832843 
  508000     4000  1.0751248e-13    1.09084e-07    0.073452075   0.0086790751 
  510000     4000  1.2157777e-13  1.0909489e-07    0.073452075   0.0086826109 
  512000     4000   1.046835e-13  1.0908616e-07    0.073452075   0.0086789678 
  514000     4000  1.2279966e-13  1.0909283e-07    0.073452075   0.0086818382 
  516000     4000  1.2988456e-13   1.090887e-07    0.073452075   0.0086799986 
  518000     4000  1.0342167e-13  1.0909034e-07    0.073452075   0.0086809339 
  520000     4000  1.2892414e-13  1.0909106e-07    0.073452075   0.0086809706 
  522000     4000  9.2905858e-14  1.0908789e-07    0.073452075   0.0086799627 
  524000     4000  1.2980415e-13  1.0909322e-07    0.073452075   0.0086818406 
  526000     4000  9.3631195e-14  1.0908558e-07    0.073452075   0.0086788754 
  528000     4000  1.3296942e-13  1.0909539e-07    0.073452075   0.0086826047 
  530000     4000  6.3158385e-14  1.0908319e-07    0.073452075   0.0086777327 
  532000     4000  1.3849259e-13  1.0909725e-07    0.073452075   0.0086832456 
  534000     4000  6.9338209e-14  1.0908132e-07    0.073452075   0.0086769582 
  536000     4000  1.4325375e-13  1.0909894e-07    0.073452075   0.0086838026 
  538000     4000   5.580047e-14  1.0907969e-07    0.073452075   0.0086772482 
  540000     4000  1.3054898e-13  1.0910017e-07    0.073452075   0.0086842069 
  542000     4000  4.6367969e-14  1.0907847e-07    0.073452075    0.008677528 
  544000     4000  1.4533605e-13   1.091013e-07    0.073452075   0.0086844923 
  546000     4000  5.1179077e-14  1.0907783e-07    0.073452075   0.0086777904 
  548000     4000  1.4378741e-13  1.0910183e-07    0.073452075     0.00868464 
  550000     4000  5.4300878e-14  1.0907755e-07    0.073452075   0.0086779802 
  552000     4000  1.3764811e-13  1.0910178e-07    0.073452075   0.0086846527 
  554000     4000  4.9886117e-14  1.0907754e-07    0.073452075   0.0086781234 
  556000     4000  1.3408319e-13   1.091013e-07    0.073452075   0.0086845514 
  558000     4000  5.2323889e-14   1.090781e-07    0.073452075   0.0086780731 
  560000     4000  1.2329888e-13   1.091003e-07    0.073452075   0.0086843131 
  562000     4000  4.9287302e-14  1.0907903e-07    0.073452075   0.0086779866 
  564000     4000  1.1658431e-13  1.0909902e-07    0.073452075   0.0086839476 
  566000     4000  6.1766679e-14   1.090805e-07    0.073452075   0.0086779349 
  568000     4000  1.1376538e-13  1.0909741e-07    0.073452075   0.0086834547 
  570000     4000  6.0721668e-14  1.0908223e-07    0.073452075   0.0086777501 
  572000     4000  9.8971125e-14  1.0909547e-07    0.073452075   0.0086828568 
  574000     4000  7.3179148e-14  1.0908433e-07    0.073452075   0.0086782248 
  576000     4000  9.4452377e-14  1.0909334e-07    0.073452075   0.0086821338 
  578000     4000  8.4799757e-14   1.090866e-07    0.073452075   0.0086793145 
  580000     4000  8.6718605e-14  1.0909106e-07    0.073452075   0.0086813165 
  582000     4000  9.0107172e-14  1.0908884e-07    0.073452075   0.0086803109 
  584000     4000  7.2730637e-14  1.0908854e-07    0.073452075   0.0086803784 
  586000     4000  9.5723414e-14  1.0909109e-07    0.073452075   0.0086812302 
  588000     4000  6.1838665e-14  1.0908615e-07    0.073452075   0.0086793807 
  590000     4000  1.0166642e-13  1.0909326e-07    0.073452075   0.0086820375 
  592000     4000   4.970248e-14  1.0908384e-07    0.073452075   0.0086782817 
  594000     4000   1.067599e-13  1.0909535e-07    0.073452075   0.0086827529 
  596000     4000  4.6361452e-14  1.0908189e-07    0.073452075   0.0086771259 
  598000     4000   1.189725e-13  1.0909727e-07    0.073452075   0.0086833322 
  600000     4000  3.8740284e-14  1.0908016e-07    0.073452075   0.0086759038 
  602000     4000  1.2143376e-13  1.0909883e-07    0.073452075   0.0086838151 
  604000     4000  3.3312855e-14  1.0907879e-07    0.073452075   0.0086761315 
  606000     4000   1.252313e-13  1.0909999e-07    0.073452075   0.0086841629 
  608000     4000  3.1508164e-14  1.0907778e-07    0.073452075    0.008676379 
  610000     4000  1.2852572e-13  1.0910076e-07    0.073452075    0.008684389 
  612000     4000  2.9403036e-14  1.0907718e-07    0.073452075   0.0086765553 
  614000     4000  1.2453735e-13  1.0910096e-07    0.073452075   0.0086844814 
  616000     4000  2.6134402e-14  1.0907695e-07    0.073452075   0.0086767132 
  618000     4000  1.2173603e-13  1.0910076e-07    0.073452075   0.0086844427 
  620000     4000  2.7909766e-14  1.0907727e-07    0.073452075   0.0086767629 
  622000     4000  1.1603698e-13  1.0910013e-07    0.073452075   0.0086842872 
  624000     4000  2.9812267e-14  1.0907803e-07    0.073452075   0.0086767789 
  626000     4000  1.1312179e-13  1.0909915e-07    0.073452075   0.0086839937 
  628000     4000  3.9600253e-14   1.090793e-07    0.073452075   0.0086767637 
  630000     4000  1.0821484e-13  1.0909779e-07    0.073452075   0.0086835777 
  632000     4000  4.6330123e-14  1.0908086e-07    0.073452075   0.0086766469 
  634000     4000  9.9244226e-14  1.0909603e-07    0.073452075   0.0086830417 
  636000     4000  5.2695724e-14   1.090827e-07    0.073452075   0.0086774966 
  638000     4000  8.9000959e-14    1.09094e-07    0.073452075   0.0086824036 
  640000     4000  6.1752249e-14  1.0908474e-07    0.073452075    0.008678599 
  642000     4000  7.9762391e-14  1.0909174e-07    0.073452075   0.0086816392 
  644000     4000  6.9193339e-14  1.0908693e-07    0.073452075   0.0086796428 
  646000     4000  6.6983146e-14  1.0908937e-07    0.073452075   0.0086807919 
  648000     4000  7.7446786e-14  1.0908916e-07    0.073452075   0.0086805914 
  650000     4000  5.7645987e-14  1.0908702e-07    0.073452075   0.0086798295 
  652000     4000   8.578791e-14  1.0909145e-07    0.073452075   0.0086814593 
  654000     4000  4.7368358e-14  1.0908477e-07    0.073452075   0.0086788065 
  656000     4000  9.5654298e-14  1.0909363e-07    0.073452075   0.0086822082 
  658000     4000  4.1313365e-14  1.0908271e-07    0.073452075   0.0086776938 
  660000     4000  1.0538151e-13  1.0909566e-07    0.073452075   0.0086828639 
  662000     4000  3.4622408e-14  1.0908086e-07    0.073452075   0.0086765267 
  664000     4000  1.1165757e-13  1.0909734e-07    0.073452075   0.0086833879 
  666000     4000  2.6922799e-14  1.0907924e-07    0.073452075   0.0086752976 
  668000     4000  1.1386455e-13  1.0909865e-07    0.073452075    0.008683812 
  670000     4000  2.0919811e-14  1.0907798e-07    0.073452075   0.0086752026 
  672000     4000  1.1740775e-13  1.0909959e-07    0.073452075   0.0086840995 
  674000     4000  1.7323493e-14  1.0907713e-07    0.073452075    0.008675385 
  676000     4000  1.1690888e-13  1.0910011e-07    0.073452075   0.0086842616 
  678000     4000  1.5901711e-14  1.0907674e-07    0.073452075   0.0086755594 
  680000     4000  1.1735311e-13  1.0910023e-07    0.073452075   0.0086843006 
  682000     4000  1.6980452e-14  1.0907683e-07    0.073452075   0.0086756477 
  684000     4000  1.1495394e-13  1.0909991e-07    0.073452075   0.0086842114 
  686000     4000  2.0803478e-14  1.0907738e-07    0.073452075   0.0086757119 
  688000     4000  1.1231946e-13  1.0909919e-07    0.073452075   0.0086839986 
  690000     4000  2.6363626e-14  1.0907833e-07    0.073452075   0.0086757316 
  692000     4000  1.0697625e-13  1.0909801e-07    0.073452075   0.0086836544 
  694000     4000  3.2623466e-14  1.0907965e-07    0.073452075   0.0086756815 
  696000     4000   9.870421e-14  1.0909646e-07    0.073452075   0.0086831974 
  698000     4000  3.7623184e-14  1.0908123e-07    0.073452075   0.0086767502 
  700000     4000  8.8038813e-14  1.0909455e-07    0.073452075   0.0086826176 
  702000     4000  4.5863957e-14  1.0908313e-07    0.073452075   0.0086778951 
  704000     4000  7.8699998e-14  1.0909249e-07    0.073452075   0.0086819393 
  706000     4000  5.4128014e-14  1.0908521e-07    0.073452075   0.0086789542 
  708000     4000  6.8645462e-14  1.0909025e-07    0.073452075   0.0086811382 
  710000     4000  6.5122093e-14  1.0908747e-07    0.073452075   0.0086799491 
  712000     4000  5.9289977e-14  1.0908801e-07    0.073452075   0.0086802604 
  714000     4000  7.4989877e-14  1.0908972e-07    0.073452075   0.0086808445 
  716000     4000  5.0055212e-14  1.0908575e-07    0.073452075   0.0086792764 
  718000     4000  8.5231312e-14  1.0909195e-07    0.073452075   0.0086816584 
  720000     4000   4.085357e-14   1.090836e-07    0.073452075   0.0086782337 
  722000     4000  9.3467406e-14  1.0909396e-07    0.073452075   0.0086823495 
  724000     4000  3.2392517e-14   1.090816e-07    0.073452075   0.0086771061 
  726000     4000  1.0038784e-13  1.0909578e-07    0.073452075   0.0086829476 
  728000     4000  2.3269375e-14  1.0907984e-07    0.073452075     0.00867593 
  730000     4000  1.0464733e-13  1.0909724e-07    0.073452075   0.0086834175 
  732000     4000  1.6825622e-14  1.0907841e-07    0.073452075    0.008674701 
  734000     4000   1.092878e-13  1.0909842e-07    0.073452075   0.0086837801 
  736000     4000   1.267894e-14  1.0907738e-07    0.073452075   0.0086744359 
  737501     4000  1.1082247e-13  1.0909847e-07    0.073452075   0.0086744359 
Loop time of 206.645 on 2 procs for 687500 steps with 4000 atoms, finish time Thu Jun 11 20:39:31 2026


Pair  time (%) = 159.079 (76.9821)
Neigh time (%) = 0.698029 (0.337792)
Comm  time (%) = 4.40955 (2.13388)
Outpt time (%) = 0.358015 (0.173252)
Other time (%) = 42.0996 (20.373)

Nlocal:    2000 ave 2016 max 1984 min
Histogram: 1 0 0 0 0 0 0 0 0 1
Nghost:    324.5 ave 325 max 324 min
Histogram: 1 0 0 0 0 0 0 0 0 1
Neighs:    12790.5 ave 12897 max 12684 min
Histogram: 1 0 0 0 0 0 0 0 0 1

Total # of neighbors = 25581
Ave neighs/atom = 6.39525
Neighbor list builds = 578
Dangerous builds = 0
Setting up run at Thu Jun 11 20:39:31 2026

Memory usage per processor = 17.4477 Mbytes
    Step    Atoms         KinEng            rke          ts[1]          ts[2] 
  737501     4000  1.1082247e-13  1.0909847e-07    0.073452075   0.0086744359 
  738000     4000  1.1242941e-13  1.0909921e-07    0.073452075   0.0037496256 
  740000     4000   1.167369e-14  1.0907679e-07    0.073452075   0.0029071978 
  742000     4000  1.1433705e-13   1.090996e-07    0.073452075   0.0037557585 
  744000     4000  1.1636336e-14  1.0907663e-07    0.073452075   0.0029234152 
  746000     4000  1.1373428e-13  1.0909954e-07    0.073452075   0.0037549023 
  748000     4000  1.3637017e-14  1.0907689e-07    0.073452075   0.0029365235 
  750000     4000  1.1038428e-13  1.0909902e-07    0.073452075   0.0037466503 
  752000     4000  1.6390367e-14  1.0907756e-07    0.073452075    0.002944537 
  754000     4000  1.0543646e-13  1.0909808e-07    0.073452075   0.0037312554 
  756000     4000   2.125429e-14  1.0907861e-07    0.073452075   0.0029454413 
  758000     4000  9.7777886e-14  1.0909673e-07    0.073452075   0.0037079887 
  760000     4000   2.665536e-14  1.0908001e-07    0.073452075   0.0031033141 
  762000     4000  8.9673585e-14   1.090951e-07    0.073452075   0.0036774136 
  764000     4000   3.459784e-14  1.0908174e-07    0.073452075    0.003232438 
  766000     4000  8.0892516e-14  1.0909319e-07    0.073452075   0.0036379037 
  768000     4000  4.4284852e-14  1.0908373e-07    0.073452075   0.0033393619 
  770000     4000  7.2520713e-14  1.0909115e-07    0.073452075   0.0035903488 
  772000     4000    5.47316e-14  1.0908586e-07    0.073452075    0.003427023 
  774000     4000  6.2585701e-14  1.0908894e-07    0.073452075   0.0035314775 
  776000     4000  6.4777988e-14  1.0908808e-07    0.073452075   0.0035016205 
  778000     4000   5.267326e-14  1.0908672e-07    0.073452075   0.0034627975 
  780000     4000  7.3759724e-14  1.0909023e-07    0.073452075   0.0035630816 
  782000     4000  4.1693509e-14  1.0908449e-07    0.073452075   0.0033796966 
  784000     4000  8.2413157e-14  1.0909231e-07    0.073452075   0.0036149636 
  786000     4000  3.2332627e-14  1.0908243e-07    0.073452075   0.0032818975 
  787502     4000  1.0948772e-13  1.0909889e-07    0.073452075   0.0032818975 
Loop time of 14.3828 on 2 procs for 50001 steps with 4000 atoms, finish time Thu Jun 11 20:39:45 2026


Pair  time (%) = 11.491 (79.8942)
Neigh time (%) = 0 (0)
Comm  time (%) = 0.293906 (2.04346)
Outpt time (%) = 0.028464 (0.197903)
Other time (%) = 2.56941 (17.8645)

Nlocal:    2000 ave 2016 max 1984 min
Histogram: 1 0 0 0 0 0 0 0 0 1
Nghost:    324.5 ave 325 max 324 min
Histogram: 1 0 0 0 0 0 0 0 0 1
Neighs:    12790.5 ave 12897 max 12684 min
Histogram: 1 0 0 0 0 0 0 0 0 1

Total # of neighbors = 25581
Ave neighs/atom = 6.39525
Neighbor list builds = 0
Dangerous builds = 0
AUDIT relax: KE = 1.09487715948483e-13 J  (heap should be static)
      235.90 real       468.50 user         2.05 sys
