LIGGGHTS (Version LIGGGHTS-PUBLIC 3.8.0, compiled 2026-06-11-14:52:41 by joshuamayo, git commit 3d5c00f20519e6bb6eb6756f51f1ad36564e649d)
Created orthogonal box = (-0.14 -0.14 0) to (0.14 0.14 0.2)
  1 by 2 by 1 MPI processor grid
WARNING: 
	The contact model you specified is not located in any whitelist.
	Because of this the model will be run in an unoptimized version (increasing runtime by up to 20%).
	In order to optimize this model you have the following options:
		(i)  Run the genAutoExamplesWhitelist.sh script in your LIGGGHTS(R) source folder to automatically parse the input script
		(ii) Add the model combination by hand to your style_contact_model_user.whitelist that can be found in your LIGGGHTS(R) source folder
		(iii) Use the ENABLE_MODEL_* flag when building with cmake.
	If you perform one of the steps above LIGGGHTS(R) needs to be recompiled to generate the optimized code.

 (../contact_models.h:365)
WARNING: 
	The contact model you specified is not located in any whitelist.
	Because of this the model will be run in an unoptimized version (increasing runtime by up to 20%).
	In order to optimize this model you have the following options:
		(i)  Run the genAutoExamplesWhitelist.sh script in your LIGGGHTS(R) source folder to automatically parse the input script
		(ii) Add the model combination by hand to your style_contact_model_user.whitelist that can be found in your LIGGGHTS(R) source folder
		(iii) Use the ENABLE_MODEL_* flag when building with cmake.
	If you perform one of the steps above LIGGGHTS(R) needs to be recompiled to generate the optimized code.

 (../contact_models.h:365)
WARNING: 
	The contact model you specified is not located in any whitelist.
	Because of this the model will be run in an unoptimized version (increasing runtime by up to 20%).
	In order to optimize this model you have the following options:
		(i)  Run the genAutoExamplesWhitelist.sh script in your LIGGGHTS(R) source folder to automatically parse the input script
		(ii) Add the model combination by hand to your style_contact_model_user.whitelist that can be found in your LIGGGHTS(R) source folder
		(iii) Use the ENABLE_MODEL_* flag when building with cmake.
	If you perform one of the steps above LIGGGHTS(R) needs to be recompiled to generate the optimized code.

 (../contact_models.h:365)
WARNING: 
	The contact model you specified is not located in any whitelist.
	Because of this the model will be run in an unoptimized version (increasing runtime by up to 20%).
	In order to optimize this model you have the following options:
		(i)  Run the genAutoExamplesWhitelist.sh script in your LIGGGHTS(R) source folder to automatically parse the input script
		(ii) Add the model combination by hand to your style_contact_model_user.whitelist that can be found in your LIGGGHTS(R) source folder
		(iii) Use the ENABLE_MODEL_* flag when building with cmake.
	If you perform one of the steps above LIGGGHTS(R) needs to be recompiled to generate the optimized code.

 (../contact_models.h:365)
WARNING: 
	The contact model you specified is not located in any whitelist.
	Because of this the model will be run in an unoptimized version (increasing runtime by up to 20%).
	In order to optimize this model you have the following options:
		(i)  Run the genAutoExamplesWhitelist.sh script in your LIGGGHTS(R) source folder to automatically parse the input script
		(ii) Add the model combination by hand to your style_contact_model_user.whitelist that can be found in your LIGGGHTS(R) source folder
		(iii) Use the ENABLE_MODEL_* flag when building with cmake.
	If you perform one of the steps above LIGGGHTS(R) needs to be recompiled to generate the optimized code.

 (../contact_models.h:365)
WARNING: 
	The contact model you specified is not located in any whitelist.
	Because of this the model will be run in an unoptimized version (increasing runtime by up to 20%).
	In order to optimize this model you have the following options:
		(i)  Run the genAutoExamplesWhitelist.sh script in your LIGGGHTS(R) source folder to automatically parse the input script
		(ii) Add the model combination by hand to your style_contact_model_user.whitelist that can be found in your LIGGGHTS(R) source folder
		(iii) Use the ENABLE_MODEL_* flag when building with cmake.
	If you perform one of the steps above LIGGGHTS(R) needs to be recompiled to generate the optimized code.

 (../contact_models.h:365)

Reading STL file '../../../templates/meshes/cylinder_r0.040_h0.100.stl' (mesh processing step 1/3) 
WARNING: 
	The contact model you specified is not located in any whitelist.
	Because of this the model will be run in an unoptimized version (increasing runtime by up to 20%).
	In order to optimize this model you have the following options:
		(i)  Run the genAutoExamplesWhitelist.sh script in your LIGGGHTS(R) source folder to automatically parse the input script
		(ii) Add the model combination by hand to your style_contact_model_user.whitelist that can be found in your LIGGGHTS(R) source folder
		(iii) Use the ENABLE_MODEL_* flag when building with cmake.
	If you perform one of the steps above LIGGGHTS(R) needs to be recompiled to generate the optimized code.

 (../contact_models.h:365)
Fix particledistribution/discrete (id pdd1): distribution based on mass%:
    pts1: d=3.400000e-03 (max. bounding sphere) mass%=25.000000%
    pts2: d=3.700000e-03 (max. bounding sphere) mass%=50.000000%
    pts3: d=4.000000e-03 (max. bounding sphere) mass%=25.000000%
Fix particledistribution/discrete (id pdd1): distribution based on number%:
    pts1: d=3.400000e-03 (max. bounding sphere) number%=31.585425%
    pts2: d=3.700000e-03 (max. bounding sphere) number%=49.017177%
    pts3: d=4.000000e-03 (max. bounding sphere) number%=19.397399%
Setting up run at Thu Jun 11 20:39:45 2026

Import and parallelization of mesh cyl containing 96 triangle(s) successful
INFO: Resetting random generator for region bc
INFO: Particle insertion ins: inserting every 0 steps
Memory usage per processor = 10.4417 Mbytes
    Step    Atoms         KinEng            rke          ts[1]          ts[2] 
       0        0              0              0              0              0 
insertion: proc 0 at 0 %
insertion: proc 1 at 0 %
insertion: proc 0 at 10 %
insertion: proc 1 at 10 %
insertion: proc 0 at 20 %
insertion: proc 1 at 20 %
insertion: proc 1 at 30 %
insertion: proc 0 at 30 %
insertion: proc 0 at 40 %
insertion: proc 1 at 40 %
insertion: proc 0 at 50 %
insertion: proc 1 at 50 %
insertion: proc 0 at 60 %
insertion: proc 1 at 60 %
insertion: proc 1 at 70 %
insertion: proc 0 at 70 %
insertion: proc 1 at 80 %
insertion: proc 0 at 80 %
insertion: proc 1 at 90 %
insertion: proc 0 at 90 %
insertion: proc 1 at 100 %
insertion: proc 0 at 100 %
INFO: Particle insertion ins: inserted 4000 particle templates (mass 1.456172e-01) at step 1
 - a total of 4000 particle templates (mass 1.456172e-01) inserted so far.
    2000     4000    0.013643633  5.3229069e-05    0.073452075    0.021391448 
    4000     4000     0.01873385  0.00016820284    0.073452075    0.022825533 
    6000     4000    0.018582167   0.0002644013    0.073452075    0.023808649 
    8000     4000   0.0066688627  0.00036401636    0.073452075    0.024955687 
   10000     4000  0.00025481165   7.810553e-05    0.073452075    0.021365574 
   12000     4000   5.505819e-05  2.3237573e-05    0.073452075    0.019504418 
   14000     4000  1.4156631e-05  7.7957022e-06    0.073452075      0.0184907 
   16000     4000   5.539236e-06   3.789515e-06    0.073452075    0.017220566 
   18000     4000  2.5790343e-06  2.0194094e-06    0.073452075    0.016929513 
   20000     4000   2.382638e-06  1.5200735e-06    0.073452075     0.01675515 
   22000     4000  1.2817533e-06  7.6285429e-07    0.073452075    0.016530432 
   24000     4000  4.5647594e-07  4.2735434e-07    0.073452075    0.014695654 
   26000     4000  5.4508665e-07  3.6283419e-07    0.073452075    0.016512711 
   28000     4000  2.2640346e-07   2.190501e-07    0.073452075    0.015045215 
   30000     4000  6.3241768e-08  1.0268247e-07    0.073452075    0.013048912 
   32000     4000  4.1885564e-08  1.1444535e-07    0.073452075    0.013360484 
   34000     4000  1.5239005e-08  6.0872542e-08    0.073452075    0.011847334 
   36000     4000  4.4408913e-08  9.1915899e-08    0.073452075    0.013610441 
   38000     4000  7.3411161e-09  5.4418587e-08    0.073452075    0.010726702 
   40000     4000  5.5686626e-09  5.7575751e-08    0.073452075    0.010910035 
   42000     4000  4.3532174e-10   4.721083e-08    0.073452075   0.0054910194 
   44000     4000  1.6660672e-10   4.799905e-08    0.073452075   0.0055132988 
   46000     4000  1.3020757e-10  4.6851727e-08    0.073452075   0.0051178997 
   48000     4000  1.7817017e-10  4.8045839e-08    0.073452075   0.0052089977 
   50000     4000  8.2198828e-11  4.7038895e-08    0.073452075   0.0052513215 
   50001     4000  8.2363256e-11  4.7038003e-08    0.073452075   0.0052513215 
Loop time of 14.5743 on 2 procs for 50001 steps with 4000 atoms, finish time Thu Jun 11 20:40:00 2026


Pair  time (%) = 10.8894 (74.7164)
Neigh time (%) = 0.089869 (0.616626)
Comm  time (%) = 0.345916 (2.37346)
Outpt time (%) = 0.0265865 (0.18242)
Other time (%) = 3.22253 (22.1111)

Nlocal:    2000 ave 2006 max 1994 min
Histogram: 1 0 0 0 0 0 0 0 0 1
Nghost:    389 ave 396 max 382 min
Histogram: 1 0 0 0 0 0 0 0 0 1
Neighs:    13744.5 ave 13792 max 13697 min
Histogram: 1 0 0 0 0 0 0 0 0 1

Total # of neighbors = 27489
Ave neighs/atom = 6.87225
Neighbor list builds = 77
Dangerous builds = 0
AUDIT settle: step 50001  KE = 8.23632561304502e-11 J  (target < 2e-8 J for quasi-static)
Setting up run at Thu Jun 11 20:40:00 2026

Memory usage per processor = 17.4443 Mbytes
    Step    Atoms         KinEng            rke          ts[1]          ts[2] 
   50001     4000  8.2363256e-11  4.7038003e-08    0.073452075   0.0052513215 
   52000     4000  5.6399741e-07  4.9949109e-07    0.073452075    0.013264756 
   54000     4000  8.8162068e-07  6.1415436e-07    0.073452075    0.016231674 
   56000     4000  9.3858303e-07   6.927371e-07    0.073452075    0.015480327 
   58000     4000  9.3687709e-07  6.7282454e-07    0.073452075    0.015373857 
   60000     4000  9.2299805e-07  7.4018586e-07    0.073452075    0.014767542 
   62000     4000   5.720281e-07  6.5948901e-07    0.073452075    0.013797078 
   64000     4000  7.7813037e-07  4.4883174e-07    0.073452075    0.017347255 
   66000     4000  7.5473331e-07  6.1855223e-07    0.073452075     0.01584079 
   68000     4000  1.0686561e-06  8.5645283e-07    0.073452075    0.015695186 
   70000     4000  1.0832527e-06  8.9722004e-07    0.073452075    0.016355088 
   72000     4000  1.8728932e-06  1.1372125e-06    0.073452075     0.01571979 
   74000     4000  8.9594046e-07    7.49656e-07    0.073452075    0.014569457 
   76000     4000  7.6463207e-07  7.9625335e-07    0.073452075    0.012957584 
   78000     4000  9.9783868e-07  8.4381499e-07    0.073452075    0.015090421 
   80000     4000  1.0622809e-06  8.2793361e-07    0.073452075    0.015043895 
   82000     4000  1.0931407e-06  8.3873122e-07    0.073452075    0.016135232 
   84000     4000  1.3864169e-06  1.0489099e-06    0.073452075    0.015426059 
   86000     4000  1.8234959e-06  1.0556646e-06    0.073452075    0.018038472 
   88000     4000  1.7032021e-06  1.0985303e-06    0.073452075    0.016929459 
   90000     4000  1.4100979e-06  1.3345564e-06    0.073452075    0.015275597 
   92000     4000  2.6568668e-06  1.5294951e-06    0.073452075    0.016420799 
   94000     4000  2.1743262e-06  1.6429559e-06    0.073452075    0.017009651 
   96000     4000  2.2492071e-06   1.432062e-06    0.073452075    0.015615946 
   98000     4000  1.8147053e-06  1.0174074e-06    0.073452075    0.017359576 
  100000     4000  1.2317183e-06  1.1701554e-06    0.073452075    0.014654974 
  102000     4000  2.5168677e-06  1.1615586e-06    0.073452075      0.0174384 
  104000     4000  1.6989785e-06   9.987424e-07    0.073452075    0.015861342 
  106000     4000  2.0539113e-06  1.1330152e-06    0.073452075    0.015893225 
  108000     4000  1.5854296e-06  1.3003118e-06    0.073452075    0.015678943 
  110000     4000  1.5830297e-06   1.079492e-06    0.073452075    0.015617374 
  112000     4000   1.849636e-06  1.2650968e-06    0.073452075    0.016387423 
  114000     4000  1.9690639e-06  1.4210431e-06    0.073452075    0.016307283 
  116000     4000  2.3366654e-06  1.1394982e-06    0.073452075    0.017687439 
  118000     4000  2.8799844e-06  1.4254376e-06    0.073452075    0.018042283 
  120000     4000  3.8577878e-06  1.9239077e-06    0.073452075    0.017989784 
  122000     4000  4.8773751e-06  2.4127064e-06    0.073452075    0.017858535 
  124000     4000  6.5094016e-06  2.2690661e-06    0.073452075    0.017843074 
  126000     4000  6.5703856e-06  2.5935325e-06    0.073452075    0.018433182 
  128000     4000  5.3910043e-06  2.3570278e-06    0.073452075    0.016574934 
  130000     4000  5.3551747e-06    2.33713e-06    0.073452075    0.018118313 
  132000     4000  7.5629329e-06  2.7014027e-06    0.073452075    0.018528236 
  134000     4000  6.1053222e-06  3.1054282e-06    0.073452075    0.017512749 
  136000     4000  4.9300837e-06  2.9710321e-06    0.073452075     0.01817903 
  138000     4000  5.8211926e-06  2.6599227e-06    0.073452075    0.017958089 
  140000     4000  5.8039441e-06  2.5347236e-06    0.073452075    0.017756676 
  142000     4000  9.5655897e-06  3.1265295e-06    0.073452075     0.01842728 
  144000     4000  5.5293897e-06  3.0490379e-06    0.073452075    0.017451607 
  146000     4000  6.8483539e-06  3.9439675e-06    0.073452075    0.017657197 
  148000     4000  8.4371915e-06  4.2350682e-06    0.073452075    0.018191181 
  150000     4000  1.3641209e-05  5.9434728e-06    0.073452075    0.018573501 
  152000     4000  1.5173319e-05  5.8911969e-06    0.073452075    0.017885216 
  154000     4000  1.4353853e-05  5.2720774e-06    0.073452075    0.019283937 
  156000     4000   1.553885e-05  5.1968136e-06    0.073452075    0.019256826 
  158000     4000  1.6573513e-05  5.9093117e-06    0.073452075    0.018918037 
  160000     4000  1.0871802e-05  4.1545521e-06    0.073452075    0.018736496 
  162000     4000  1.3482005e-05  4.5073555e-06    0.073452075    0.019780832 
  164000     4000  1.3158323e-05  5.4170974e-06    0.073452075    0.018812185 
  166000     4000  1.3837002e-05  5.5228332e-06    0.073452075    0.019329282 
  168000     4000  1.3542667e-05  5.3733164e-06    0.073452075    0.017923213 
  170000     4000  1.7592783e-05  6.2600517e-06    0.073452075    0.018891154 
  172000     4000  1.8069637e-05  6.5423498e-06    0.073452075    0.018923222 
  174000     4000  1.6255731e-05   5.442927e-06    0.073452075    0.018753208 
  176000     4000    1.43842e-05  5.2797293e-06    0.073452075    0.018318948 
  178000     4000  1.8179006e-05  5.6838797e-06    0.073452075     0.01907787 
  180000     4000  2.6487957e-05  7.3324202e-06    0.073452075    0.019049156 
  182000     4000  3.7146948e-05  9.1447213e-06    0.073452075    0.020041031 
  184000     4000  4.6782789e-05  1.0349172e-05    0.073452075    0.019477327 
  186000     4000  3.7662903e-05  1.0770541e-05    0.073452075    0.020481607 
  188000     4000  3.6731479e-05  1.0858613e-05    0.073452075    0.018980889 
  190000     4000  4.4762654e-05  1.1577776e-05    0.073452075    0.020304132 
  192000     4000  3.6727646e-05  1.1161982e-05    0.073452075    0.018369867 
  194000     4000   3.887883e-05  1.1930273e-05    0.073452075    0.019490131 
  196000     4000  3.5932232e-05  1.2339222e-05    0.073452075    0.019484869 
  198000     4000  3.6901824e-05  1.1257355e-05    0.073452075    0.019217163 
  200000     4000  3.7548668e-05  1.0944334e-05    0.073452075    0.019085315 
  202000     4000  3.9403379e-05  9.9071763e-06    0.073452075    0.020147472 
  204000     4000  3.5309662e-05  1.0912864e-05    0.073452075    0.019571499 
  206000     4000  4.6594396e-05  1.2072675e-05    0.073452075    0.019178594 
  208000     4000   4.508427e-05  1.1867575e-05    0.073452075    0.020165028 
  210000     4000  5.1147033e-05  1.2527692e-05    0.073452075    0.019103386 
  212000     4000  4.2486596e-05  1.2175632e-05    0.073452075    0.018844807 
  214000     4000  3.4614505e-05  9.5029372e-06    0.073452075    0.019644274 
  216000     4000  3.1508193e-05  9.9423623e-06    0.073452075     0.01935138 
  218000     4000  3.3444466e-05   9.981739e-06    0.073452075    0.019341908 
  220000     4000  4.1365787e-05   1.132228e-05    0.073452075    0.019426659 
  222000     4000  3.7318322e-05  1.0580736e-05    0.073452075    0.019785232 
  224000     4000  3.6484316e-05  1.0667125e-05    0.073452075    0.019088128 
  226000     4000   3.867361e-05  1.1182965e-05    0.073452075     0.01932196 
  228000     4000  4.9300102e-05  1.3100997e-05    0.073452075    0.019517817 
  230000     4000  4.5463776e-05  1.2592443e-05    0.073452075     0.01921718 
  232000     4000  5.2924484e-05  1.3496572e-05    0.073452075    0.019268784 
  234000     4000  5.5686693e-05  1.3483572e-05    0.073452075    0.019975095 
  236000     4000  3.8063445e-05  1.1756637e-05    0.073452075    0.019791591 
  238000     4000  3.5554595e-05  1.1046884e-05    0.073452075    0.018805835 
  240000     4000  3.7660782e-05  1.0771388e-05    0.073452075    0.019634444 
  242000     4000  3.4792538e-05  1.1026275e-05    0.073452075     0.01821562 
  244000     4000  3.5020258e-05  1.0137279e-05    0.073452075    0.019923505 
  246000     4000  4.3948718e-05  1.1548306e-05    0.073452075    0.019403324 
  248000     4000  4.9082058e-05  1.3179769e-05    0.073452075    0.019714156 
  250000     4000  4.8417167e-05  1.3403776e-05    0.073452075    0.019123781 
  252000     4000  4.5170624e-05  1.2345592e-05    0.073452075    0.019171868 
  254000     4000  4.3838436e-05  1.2446338e-05    0.073452075    0.019316473 
  256000     4000  4.3731328e-05  1.2243546e-05    0.073452075    0.019438259 
  258000     4000  4.8869276e-05  1.4366954e-05    0.073452075    0.019639979 
  260000     4000  5.3165183e-05  1.4373211e-05    0.073452075    0.019407899 
  262000     4000  5.3480276e-05  1.3780667e-05    0.073452075    0.019866197 
  264000     4000  6.1743531e-05  1.5427073e-05    0.073452075    0.019523134 
  266000     4000  6.2138229e-05  1.5103756e-05    0.073452075    0.019789215 
  268000     4000  6.3302554e-05  1.5896839e-05    0.073452075    0.019488637 
  270000     4000  7.0394512e-05  1.5870327e-05    0.073452075    0.020090107 
  272000     4000  7.1941232e-05  1.7150126e-05    0.073452075    0.018839514 
  274000     4000  5.8967488e-05  1.5675306e-05    0.073452075    0.019275138 
  276000     4000  5.7039974e-05  1.5312887e-05    0.073452075    0.018758711 
  278000     4000  6.6354188e-05  1.6187653e-05    0.073452075    0.019244657 
  280000     4000  6.6810164e-05  1.7036961e-05    0.073452075    0.019475278 
  282000     4000  7.2792569e-05  1.8209161e-05    0.073452075    0.020049568 
  284000     4000  7.7482589e-05  1.7209987e-05    0.073452075    0.019151328 
  286000     4000  6.9465634e-05  1.8252422e-05    0.073452075    0.019502051 
  288000     4000  6.6784693e-05   1.820324e-05    0.073452075    0.019213321 
  290000     4000   6.603272e-05  1.7336355e-05    0.073452075    0.019691661 
  292000     4000  6.4055031e-05  1.7178123e-05    0.073452075    0.019533173 
  294000     4000  6.7696841e-05  1.6972017e-05    0.073452075    0.019123213 
  296000     4000  6.3041941e-05  1.6832127e-05    0.073452075    0.019498871 
  298000     4000  6.5958692e-05  1.6082314e-05    0.073452075     0.02029446 
  300000     4000    5.80348e-05  1.4494753e-05    0.073452075    0.019447114 
  302000     4000  6.3472376e-05  1.5169594e-05    0.073452075    0.020332245 
  304000     4000  6.2736162e-05  1.6499093e-05    0.073452075    0.018805057 
  306000     4000  6.5823537e-05  1.6126628e-05    0.073452075    0.019459205 
  308000     4000  7.5072479e-05  1.7492626e-05    0.073452075    0.019262339 
  310000     4000  7.3537828e-05  1.7003868e-05    0.073452075    0.018964736 
  312000     4000  7.6295126e-05  1.8582466e-05    0.073452075    0.019054339 
  314000     4000  8.3179535e-05   1.982389e-05    0.073452075    0.019538218 
  316000     4000  8.2871119e-05  1.8151704e-05    0.073452075    0.019595606 
  318000     4000  8.2279611e-05  1.8859108e-05    0.073452075    0.020556332 
  320000     4000  7.8645629e-05  1.9771174e-05    0.073452075    0.020016294 
  322000     4000  7.7348654e-05  2.0328081e-05    0.073452075    0.018945141 
  324000     4000  7.3115071e-05  1.9032275e-05    0.073452075    0.020173586 
  326000     4000  6.7259165e-05  1.7853889e-05    0.073452075    0.019795653 
  328000     4000  5.9453237e-05  1.7391545e-05    0.073452075    0.019698999 
  330000     4000  5.9309706e-05  1.5820288e-05    0.073452075    0.018867105 
  332000     4000  6.1250941e-05  1.5541985e-05    0.073452075    0.019926506 
  334000     4000  5.4661688e-05  1.4784872e-05    0.073452075    0.018990908 
  336000     4000  4.8517447e-05   1.394346e-05    0.073452075    0.019613651 
  338000     4000  3.9414027e-05  1.2202993e-05    0.073452075    0.018572882 
  340000     4000  3.4920762e-05  1.0117026e-05    0.073452075    0.019496209 
  342000     4000  2.6498093e-05  1.0020067e-05    0.073452075      0.0194199 
  344000     4000  2.4702452e-05  8.9410752e-06    0.073452075    0.018854191 
  346000     4000  2.6051058e-05  8.3815541e-06    0.073452075     0.02002997 
  348000     4000  2.0964924e-05  8.2756423e-06    0.073452075    0.019000705 
  350000     4000  1.5712388e-05  6.0872221e-06    0.073452075    0.019526616 
  352000     4000  1.2198521e-05  4.7676591e-06    0.073452075    0.019717868 
  354000     4000  8.9559185e-06  3.8400198e-06    0.073452075    0.018198374 
  356000     4000   8.038118e-06  3.3565569e-06    0.073452075      0.0188787 
  358000     4000  5.3789145e-06  2.7485625e-06    0.073452075    0.018537117 
  360000     4000  3.9326958e-06  2.0590509e-06    0.073452075    0.017886244 
  362000     4000  3.4935687e-06  1.8968236e-06    0.073452075    0.017908249 
  364000     4000  4.4620655e-06  1.7981986e-06    0.073452075      0.0194446 
  366000     4000  4.0022409e-06  1.9369516e-06    0.073452075    0.019176887 
  368000     4000  2.4193747e-06  1.2822214e-06    0.073452075    0.017687097 
  370000     4000  1.7098052e-06  1.0091698e-06    0.073452075    0.016869808 
  372000     4000  1.9590563e-06   1.102711e-06    0.073452075    0.017239817 
  374000     4000  3.1875461e-06  1.4583449e-06    0.073452075    0.018626821 
  376000     4000  7.8416208e-07  9.2159411e-07    0.073452075    0.015221031 
  378000     4000   2.234821e-06  9.6934045e-07    0.073452075    0.018130328 
  380000     4000  5.4240771e-07  6.0604124e-07    0.073452075    0.014820542 
  382000     4000  7.7783317e-07  7.7977448e-07    0.073452075    0.015882825 
  384000     4000  5.5828529e-07  7.3694941e-07    0.073452075    0.015788487 
  386000     4000  7.3280713e-07  7.7874601e-07    0.073452075     0.01598536 
  388000     4000  1.2720512e-06  7.0604237e-07    0.073452075    0.018095057 
  390000     4000   9.084215e-07  6.4966964e-07    0.073452075    0.016881481 
  392000     4000  4.9023973e-07  6.3402548e-07    0.073452075    0.016578857 
  394000     4000  3.1333341e-07  5.1974112e-07    0.073452075    0.015788894 
  396000     4000  2.1538287e-07    4.08374e-07    0.073452075    0.015030444 
  398000     4000  2.4585738e-07  3.9454427e-07    0.073452075    0.015765756 
  400000     4000  1.9033826e-07  4.3329749e-07    0.073452075    0.015131588 
  402000     4000  8.3166065e-08  3.2786866e-07    0.073452075    0.013809291 
  404000     4000  2.8306307e-08  2.7872409e-07    0.073452075    0.012713168 
  406000     4000  7.9270842e-09  2.6720243e-07    0.073452075    0.011219854 
  408000     4000  5.8482254e-11  2.6410334e-07    0.073452075    0.008816342 
  410000     4000  1.8406308e-11  2.6409359e-07    0.073452075   0.0086967635 
  412000     4000  1.4334159e-11  2.6409125e-07    0.073452075   0.0086903782 
  414000     4000   9.954493e-12  2.6409355e-07    0.073452075   0.0086914677 
  416000     4000   4.138593e-12  2.6408808e-07    0.073452075   0.0086900193 
  418000     4000  1.8827462e-12  2.6409356e-07    0.073452075   0.0086890645 
  420000     4000  3.0987559e-12   2.640877e-07    0.073452075   0.0086889567 
  422000     4000  4.2844568e-12  2.6409418e-07    0.073452075   0.0086878603 
  424000     4000    2.68146e-12  2.6408953e-07    0.073452075   0.0086863791 
  426000     4000  9.4454424e-13  2.6409483e-07    0.073452075   0.0086851945 
  428000     4000  7.6273906e-13  2.6409067e-07    0.073452075   0.0086838589 
  430000     4000  1.6074307e-12  2.6409667e-07    0.073452075   0.0086823721 
  432000     4000  1.6434607e-12  2.6409259e-07    0.073452075   0.0086812186 
  434000     4000  8.6751863e-13  2.6409578e-07    0.073452075   0.0086808936 
  436000     4000  3.4947219e-13   2.640939e-07    0.073452075   0.0086795714 
  438000     4000  4.2154369e-13   2.640954e-07    0.073452075    0.008678603 
  440000     4000  7.2581637e-13  2.6409271e-07    0.073452075   0.0086775488 
  442000     4000  6.2326186e-13   2.640932e-07    0.073452075   0.0086767866 
  444000     4000   2.822681e-13  2.6409215e-07    0.073452075   0.0086759776 
  446000     4000  1.4641564e-13   2.640901e-07    0.073452075   0.0086757416 
  448000     4000  2.0800683e-13  2.6409029e-07    0.073452075   0.0086750575 
  450000     4000  3.0412062e-13  2.6408742e-07    0.073452075   0.0086744515 
  452000     4000  2.1949772e-13  2.6408832e-07    0.073452075   0.0086753806 
  454000     4000  8.6952352e-14  2.6408491e-07    0.073452075   0.0086743293 
  456000     4000  6.7468874e-14  2.6408753e-07    0.073452075   0.0086755949 
  458000     4000  9.7528016e-14  2.6408324e-07    0.073452075   0.0086735583 
  460000     4000  1.3594947e-13  2.6408704e-07    0.073452075   0.0086757415 
  462000     4000   8.825014e-14  2.6408353e-07    0.073452075   0.0086740715 
  464000     4000  5.4185465e-14  2.6408767e-07    0.073452075   0.0086757314 
  466000     4000  3.8058545e-14  2.6408425e-07    0.073452075   0.0086735196 
  468000     4000  8.5140194e-14   2.640892e-07    0.073452075   0.0086756805 
  470000     4000  5.6834179e-14   2.640861e-07    0.073452075   0.0086738982 
  472000     4000  5.2235962e-14  2.6409056e-07    0.073452075   0.0086755018 
  474000     4000  3.1222484e-14  2.6408821e-07    0.073452075   0.0086746751 
  476000     4000  4.4749712e-14  2.6409181e-07    0.073452075   0.0086752628 
  478000     4000  4.5658348e-14   2.640897e-07    0.073452075   0.0086751508 
  480000     4000  6.0003114e-14  2.6409236e-07    0.073452075   0.0086752602 
  482000     4000   3.702044e-14  2.6409065e-07    0.073452075   0.0086752966 
  484000     4000  3.5744636e-14  2.6409157e-07    0.073452075   0.0086752457 
  486000     4000  4.0681268e-14  2.6409058e-07    0.073452075   0.0086751142 
  488000     4000  3.8179847e-14  2.6409015e-07    0.073452075   0.0086749118 
  490000     4000  3.0924716e-14  2.6408956e-07    0.073452075   0.0086746294 
  492000     4000  2.2777498e-14  2.6408795e-07    0.073452075   0.0086742871 
  494000     4000  2.6680793e-14  2.6408826e-07    0.073452075   0.0086746234 
  496000     4000  1.7414183e-14  2.6408567e-07    0.073452075   0.0086734077 
  498000     4000  2.3663936e-14  2.6408689e-07    0.073452075   0.0086748766 
  500000     4000  1.2342446e-14  2.6408393e-07    0.073452075   0.0086725936 
  502000     4000  1.8176638e-14  2.6408598e-07    0.073452075   0.0086750246 
  504000     4000  5.9394473e-15  2.6408296e-07    0.073452075   0.0086724252 
  506000     4000   1.801571e-14  2.6408589e-07    0.073452075   0.0086751021 
  508000     4000  5.8306816e-15  2.6408303e-07    0.073452075   0.0086721903 
  510000     4000  1.5552148e-14  2.6408645e-07    0.073452075   0.0086750891 
  512000     4000  6.6048743e-15  2.6408407e-07    0.073452075   0.0086728359 
  514000     4000   1.907762e-14  2.6408763e-07    0.073452075   0.0086749906 
  516000     4000  9.2047849e-15  2.6408562e-07    0.073452075   0.0086737313 
  518000     4000  2.2407589e-14  2.6408892e-07    0.073452075   0.0086748133 
  520000     4000  1.4476465e-14  2.6408732e-07    0.073452075   0.0086744011 
  522000     4000  2.3219756e-14  2.6408988e-07    0.073452075   0.0086746359 
  524000     4000    1.71937e-14  2.6408864e-07    0.073452075    0.008674802 
  526000     4000  2.3554868e-14  2.6409018e-07    0.073452075   0.0086748903 
  528000     4000     1.8585e-14  2.6408922e-07    0.073452075   0.0086749045 
  530000     4000  2.1057905e-14  2.6408964e-07    0.073452075   0.0086748434 
  532000     4000  1.8793975e-14  2.6408905e-07    0.073452075     0.00867471 
  534000     4000  1.5717176e-14  2.6408832e-07    0.073452075   0.0086745071 
  536000     4000  1.6782798e-14  2.6408819e-07    0.073452075    0.008674236 
  538000     4000  1.1744196e-14  2.6408659e-07    0.073452075   0.0086739032 
  540000     4000  1.4325898e-14  2.6408698e-07    0.073452075   0.0086742311 
  542000     4000  7.1686579e-15  2.6408481e-07    0.073452075   0.0086730854 
  544000     4000  1.2194577e-14  2.6408586e-07    0.073452075    0.008674406 
  546000     4000  2.8170627e-15  2.6408344e-07    0.073452075   0.0086721251 
  548000     4000  1.0550437e-14  2.6408515e-07    0.073452075   0.0086745126 
  550000     4000  9.3127167e-16  2.6408281e-07    0.073452075   0.0086714864 
  552000     4000   9.786286e-15  2.6408507e-07    0.073452075   0.0086745417 
  554000     4000  1.6009426e-15  2.6408301e-07    0.073452075    0.008671818 
  556000     4000  1.0926535e-14  2.6408564e-07    0.073452075   0.0086745027 
  558000     4000  3.5359669e-15  2.6408395e-07    0.073452075    0.008672767 
  560000     4000  1.3343697e-14  2.6408661e-07    0.073452075   0.0086743898 
  562000     4000  7.0919874e-15  2.6408531e-07    0.073452075   0.0086735614 
  564000     4000  1.5240051e-14  2.6408767e-07    0.073452075   0.0086742129 
  566000     4000  1.0791373e-14  2.6408669e-07    0.073452075    0.008674147 
  568000     4000  1.6693866e-14  2.6408844e-07    0.073452075   0.0086743474 
  570000     4000   1.326564e-14  2.6408772e-07    0.073452075   0.0086744819 
  572000     4000  1.6798851e-14  2.6408863e-07    0.073452075   0.0086745476 
  574000     4000  1.4727264e-14  2.6408813e-07    0.073452075   0.0086745454 
  576000     4000  1.4896164e-14  2.6408814e-07    0.073452075   0.0086744751 
  578000     4000  1.4377369e-14  2.6408787e-07    0.073452075   0.0086743379 
  580000     4000  1.1779692e-14  2.6408705e-07    0.073452075   0.0086741368 
  582000     4000  1.3089269e-14  2.6408708e-07    0.073452075   0.0086738766 
  584000     4000  8.0067703e-15  2.6408561e-07    0.073452075   0.0086735636 
  586000     4000  1.0466396e-14  2.6408603e-07    0.073452075   0.0086738601 
  588000     4000  4.2564041e-15   2.640842e-07    0.073452075   0.0086728036 
  590000     4000  8.3017271e-15  2.6408509e-07    0.073452075   0.0086739884 
  592000     4000    1.29502e-15  2.6408316e-07    0.073452075   0.0086719155 
  594000     4000   7.226316e-15  2.6408453e-07    0.073452075   0.0086740519 
  596000     4000  2.5789053e-16  2.6408275e-07    0.073452075   0.0086712717 
  598000     4000   7.049448e-15  2.6408451e-07    0.073452075   0.0086740518 
  600000     4000  1.0714946e-15  2.6408303e-07    0.073452075   0.0086718415 
  602000     4000  8.0958721e-15    2.64085e-07    0.073452075     0.00867399 
  604000     4000  2.9996691e-15  2.6408387e-07    0.073452075   0.0086726923 
  606000     4000  9.9955863e-15  2.6408584e-07    0.073452075   0.0086738692 
  608000     4000  5.9176334e-15  2.6408503e-07    0.073452075   0.0086733978 
  610000     4000  1.1698361e-14   2.640867e-07    0.073452075   0.0086736921 
  612000     4000  8.9382115e-15  2.6408615e-07    0.073452075   0.0086739072 
  614000     4000  1.2864293e-14  2.6408731e-07    0.073452075   0.0086740768 
  616000     4000  1.1053829e-14  2.6408694e-07    0.073452075   0.0086741856 
  618000     4000  1.2990336e-14  2.6408744e-07    0.073452075   0.0086742318 
  620000     4000  1.2017366e-14   2.640872e-07    0.073452075    0.008674215 
  622000     4000  1.1477946e-14  2.6408699e-07    0.073452075   0.0086741367 
  624000     4000  1.1657248e-14   2.640869e-07    0.073452075   0.0086739982 
  626000     4000  8.8436919e-15  2.6408607e-07    0.073452075   0.0086738032 
  628000     4000  1.0097117e-14  2.6408618e-07    0.073452075    0.008673555 
  630000     4000  5.7473532e-15   2.640849e-07    0.073452075   0.0086732599 
  632000     4000  8.0358136e-15  2.6408528e-07    0.073452075   0.0086735195 
  634000     4000  2.8555782e-15  2.6408378e-07    0.073452075   0.0086725512 
  636000     4000  6.2922234e-15   2.640845e-07    0.073452075   0.0086736076 
  638000     4000  7.8469613e-16  2.6408299e-07    0.073452075   0.0086717324 
  640000     4000  5.3269617e-15  2.6408406e-07    0.073452075   0.0086736397 
  642000     4000  1.0843708e-16  2.6408274e-07    0.073452075   0.0086712041 
  644000     4000  5.2622679e-15  2.6408408e-07    0.073452075   0.0086736171 
  646000     4000  8.6181566e-16  2.6408304e-07    0.073452075   0.0086718527 
  648000     4000  6.2260582e-15  2.6408453e-07    0.073452075   0.0086735416 
  650000     4000  2.7529013e-15  2.6408379e-07    0.073452075   0.0086726158 
  652000     4000   7.751867e-15  2.6408523e-07    0.073452075   0.0086734165 
  654000     4000  5.2463841e-15  2.6408476e-07    0.073452075   0.0086732408 
  656000     4000   9.233395e-15  2.6408595e-07    0.073452075   0.0086734866 
  658000     4000  7.6866848e-15  2.6408567e-07    0.073452075   0.0086736824 
  660000     4000  1.0115245e-14  2.6408643e-07    0.073452075   0.0086738244 
  662000     4000  9.3236276e-15  2.6408627e-07    0.073452075   0.0086739106 
  664000     4000  1.0095958e-14  2.6408649e-07    0.073452075   0.0086739397 
  666000     4000  9.8427281e-15  2.6408642e-07    0.073452075   0.0086739119 
  668000     4000  8.8155434e-15  2.6408609e-07    0.073452075   0.0086738282 
  670000     4000  9.3001604e-15   2.640861e-07    0.073452075   0.0086736901 
  672000     4000  6.7250063e-15  2.6408532e-07    0.073452075   0.0086735011 
  674000     4000  7.9813465e-15  2.6408546e-07    0.073452075    0.008673265 
  676000     4000  4.2630907e-15  2.6408436e-07    0.073452075   0.0086729872 
  678000     4000  6.1601547e-15  2.6408469e-07    0.073452075   0.0086732101 
  680000     4000  1.9690012e-15  2.6408347e-07    0.073452075   0.0086723275 
  682000     4000   4.701239e-15  2.6408405e-07    0.073452075   0.0086732661 
  684000     4000  4.2889909e-16  2.6408289e-07    0.073452075   0.0086715735 
  686000     4000  3.8499196e-15  2.6408371e-07    0.073452075   0.0086732743 
  688000     4000  4.2622535e-17  2.6408274e-07    0.073452075   0.0086710888 
  690000     4000  3.8865138e-15  2.6408376e-07    0.073452075   0.0086732355 
  692000     4000  8.6706461e-16  2.6408305e-07    0.073452075   0.0086718539 
  694000     4000  4.7959349e-15  2.6408416e-07    0.073452075   0.0086731517 
  696000     4000  2.5460062e-15  2.6408371e-07    0.073452075   0.0086725375 
  698000     4000  6.0929037e-15  2.6408476e-07    0.073452075    0.008673026 
  700000     4000  4.6144554e-15  2.6408452e-07    0.073452075   0.0086730899 
  702000     4000   7.341415e-15  2.6408535e-07    0.073452075   0.0086733037 
  704000     4000  6.5513143e-15  2.6408525e-07    0.073452075   0.0086734712 
  706000     4000  8.0214968e-15  2.6408572e-07    0.073452075   0.0086735893 
  708000     4000  7.7519472e-15   2.640857e-07    0.073452075   0.0086736564 
  710000     4000  7.9252177e-15  2.6408575e-07    0.073452075   0.0086736712 
  712000     4000  8.1040558e-15  2.6408576e-07    0.073452075   0.0086736342 
  714000     4000  6.9145882e-15  2.6408539e-07    0.073452075   0.0086735466 
  716000     4000  7.4966639e-15  2.6408545e-07    0.073452075   0.0086734102 
  718000     4000   5.153068e-15  2.6408474e-07    0.073452075   0.0086732282 
  720000     4000  6.2373265e-15  2.6408488e-07    0.073452075   0.0086730041 
  722000     4000  3.1371679e-15  2.6408396e-07    0.073452075   0.0086727428 
  724000     4000  4.6985348e-15  2.6408423e-07    0.073452075   0.0086729298 
  726000     4000  1.3509469e-15  2.6408326e-07    0.073452075   0.0086721296 
  728000     4000  3.4713233e-15   2.640837e-07    0.073452075   0.0086729609 
  730000     4000  2.3589062e-16  2.6408282e-07    0.073452075   0.0086714367 
  732000     4000  2.8540188e-15  2.6408345e-07    0.073452075   0.0086729508 
  734000     4000  9.1970252e-17  2.6408275e-07    0.073452075   0.0086711556 
  736000     4000  2.9570313e-15  2.6408352e-07    0.073452075   0.0086729008 
  737501     4000  3.7368954e-15  2.6408385e-07    0.073452075   0.0086729008 
Loop time of 207.323 on 2 procs for 687500 steps with 4000 atoms, finish time Thu Jun 11 20:43:27 2026


Pair  time (%) = 160.466 (77.3989)
Neigh time (%) = 0.720335 (0.347446)
Comm  time (%) = 4.31039 (2.07907)
Outpt time (%) = 0.366659 (0.176854)
Other time (%) = 41.4599 (19.9978)

Nlocal:    2000 ave 2008 max 1992 min
Histogram: 1 0 0 0 0 0 0 0 0 1
Nghost:    323 ave 326 max 320 min
Histogram: 1 0 0 0 0 0 0 0 0 1
Neighs:    12854 ave 12933 max 12775 min
Histogram: 1 0 0 0 0 0 0 0 0 1

Total # of neighbors = 25708
Ave neighs/atom = 6.427
Neighbor list builds = 602
Dangerous builds = 0
Setting up run at Thu Jun 11 20:43:27 2026

Memory usage per processor = 17.4448 Mbytes
    Step    Atoms         KinEng            rke          ts[1]          ts[2] 
  737501     4000  3.7368954e-15  2.6408385e-07    0.073452075   0.0086729008 
  738000     4000  8.7545386e-16  2.6408306e-07    0.073452075   0.0021994614 
  740000     4000  3.7315525e-15  2.6408388e-07    0.073452075   0.0025418869 
  742000     4000  2.3216124e-15  2.6408363e-07    0.073452075   0.0024375541 
  744000     4000  4.8147567e-15  2.6408438e-07    0.073452075   0.0025161367 
  746000     4000  4.0285496e-15   2.640843e-07    0.073452075   0.0025768507 
  748000     4000   5.845506e-15  2.6408487e-07    0.073452075    0.002622801 
  750000     4000  5.5820284e-15  2.6408488e-07    0.073452075   0.0026560756 
  752000     4000   6.418243e-15  2.6408516e-07    0.073452075   0.0026778282 
  754000     4000  6.4969595e-15  2.6408521e-07    0.073452075   0.0026888377 
  756000     4000  6.2928609e-15  2.6408516e-07    0.073452075   0.0026894564 
  758000     4000  6.6342571e-15  2.6408521e-07    0.073452075   0.0026798344 
  760000     4000  5.3862887e-15  2.6408484e-07    0.073452075   0.0026597988 
  762000     4000  5.9792433e-15  2.6408491e-07    0.073452075   0.0026288042 
  764000     4000  3.9435502e-15  2.6408429e-07    0.073452075   0.0025860024 
  766000     4000  4.8591966e-15  2.6408441e-07    0.073452075    0.002529921 
  768000     4000  2.3243111e-15  2.6408366e-07    0.073452075   0.0024583405 
  770000     4000  3.5737378e-15  2.6408387e-07    0.073452075   0.0025040946 
  772000     4000  9.4808118e-16   2.640831e-07    0.073452075   0.0022494985 
  774000     4000  2.5696013e-15  2.6408344e-07    0.073452075   0.0025075424 
  776000     4000  1.4774284e-16  2.6408278e-07    0.073452075   0.0018489773 
  778000     4000  2.0890462e-15  2.6408326e-07    0.073452075   0.0025008334 
  780000     4000   1.202929e-16  2.6408277e-07    0.073452075   0.0017280843 
  782000     4000  2.2190681e-15  2.6408334e-07    0.073452075   0.0024840697 
  784000     4000  8.4483496e-16  2.6408305e-07    0.073452075   0.0021926524 
  786000     4000  2.9039404e-15  2.6408366e-07    0.073452075   0.0024570073 
  787502     4000  2.0740518e-15  2.6408327e-07    0.073452075   0.0024570073 
Loop time of 14.6259 on 2 procs for 50001 steps with 4000 atoms, finish time Thu Jun 11 20:43:42 2026


Pair  time (%) = 11.7253 (80.1685)
Neigh time (%) = 0 (0)
Comm  time (%) = 0.304094 (2.07915)
Outpt time (%) = 0.0253885 (0.173586)
Other time (%) = 2.57105 (17.5788)

Nlocal:    2000 ave 2008 max 1992 min
Histogram: 1 0 0 0 0 0 0 0 0 1
Nghost:    323 ave 326 max 320 min
Histogram: 1 0 0 0 0 0 0 0 0 1
Neighs:    12854 ave 12933 max 12775 min
Histogram: 1 0 0 0 0 0 0 0 0 1

Total # of neighbors = 25708
Ave neighs/atom = 6.427
Neighbor list builds = 0
Dangerous builds = 0
AUDIT relax: KE = 2.07405177432133e-15 J  (heap should be static)
      236.66 real       470.42 user         2.16 sys
