LIGGGHTS (Version LIGGGHTS-PUBLIC 3.8.0, compiled 2026-06-11-14:52:41 by joshuamayo, git commit 3d5c00f20519e6bb6eb6756f51f1ad36564e649d)
Created orthogonal box = (-0.14 -0.14 -0.05) to (0.14 0.14 0.2)
  1 by 2 by 1 MPI processor grid
WARNING: 
	The contact model you specified is not located in any whitelist.
	Because of this the model will be run in an unoptimized version (increasing runtime by up to 20%).
	In order to optimize this model you have the following options:
		(i)  Run the genAutoExamplesWhitelist.sh script in your LIGGGHTS(R) source folder to automatically parse the input script
		(ii) Add the model combination by hand to your style_contact_model_user.whitelist that can be found in your LIGGGHTS(R) source folder
		(iii) Use the ENABLE_MODEL_* flag when building with cmake.
	If you perform one of the steps above LIGGGHTS(R) needs to be recompiled to generate the optimized code.

 (../contact_models.h:365)

Reading STL file '../../../../../templates/meshes/cylinder_r0.040_h0.100.stl' (mesh processing step 1/3) 

Reading STL file '../../../../../templates/meshes/floor_annulus_r0.046_o0.011.stl' (mesh processing step 1/3) 

Reading STL file '../../../../../templates/meshes/plug_disk_r0.0135.stl' (mesh processing step 1/3) 
WARNING: 
	The contact model you specified is not located in any whitelist.
	Because of this the model will be run in an unoptimized version (increasing runtime by up to 20%).
	In order to optimize this model you have the following options:
		(i)  Run the genAutoExamplesWhitelist.sh script in your LIGGGHTS(R) source folder to automatically parse the input script
		(ii) Add the model combination by hand to your style_contact_model_user.whitelist that can be found in your LIGGGHTS(R) source folder
		(iii) Use the ENABLE_MODEL_* flag when building with cmake.
	If you perform one of the steps above LIGGGHTS(R) needs to be recompiled to generate the optimized code.

 (../contact_models.h:365)

Reading STL file '../../../../../templates/meshes/catch_disk_r0.030.stl' (mesh processing step 1/3) 
Fix particledistribution/discrete (id pdd1): distribution based on mass%:
    pts1: d=3.400000e-03 (max. bounding sphere) mass%=25.000000%
    pts2: d=3.700000e-03 (max. bounding sphere) mass%=50.000000%
    pts3: d=4.000000e-03 (max. bounding sphere) mass%=25.000000%
Fix particledistribution/discrete (id pdd1): distribution based on number%:
    pts1: d=3.400000e-03 (max. bounding sphere) number%=31.585425%
    pts2: d=3.700000e-03 (max. bounding sphere) number%=49.017177%
    pts3: d=4.000000e-03 (max. bounding sphere) number%=19.397399%
Setting up run at Fri Jun 12 15:46:33 2026

Import and parallelization of mesh cyl containing 96 triangle(s) successful
Import and parallelization of mesh floor containing 96 triangle(s) successful
Import and parallelization of mesh plug containing 48 triangle(s) successful
Import and parallelization of mesh catch containing 48 triangle(s) successful
INFO: Resetting random generator for region bc
INFO: Particle insertion ins: inserting every 0 steps
Memory usage per processor = 15.7366 Mbytes
    Step    Atoms         KinEng          ms[1]          ts[1]          ts[2] 
       0        0              0              0              0              0 
insertion: proc 0 at 0 %
insertion: proc 1 at 0 %
insertion: proc 0 at 10 %
insertion: proc 1 at 10 %
insertion: proc 0 at 20 %
insertion: proc 1 at 20 %
insertion: proc 0 at 30 %
insertion: proc 1 at 30 %
insertion: proc 0 at 40 %
insertion: proc 1 at 40 %
insertion: proc 0 at 50 %
insertion: proc 1 at 50 %
insertion: proc 0 at 60 %
insertion: proc 1 at 60 %
insertion: proc 1 at 70 %
insertion: proc 0 at 70 %
insertion: proc 1 at 80 %
insertion: proc 0 at 80 %
insertion: proc 1 at 90 %
insertion: proc 0 at 90 %
insertion: proc 1 at 100 %
insertion: proc 0 at 100 %
INFO: Particle insertion ins: inserted 4000 particle templates (mass 1.456074e-01) at step 1
 - a total of 4000 particle templates (mass 1.456074e-01) inserted so far.
    1000     4000    0.010426758              0    0.073452075    0.020600207 
    2000     4000     0.01416649              0    0.073452075    0.021567012 
    3000     4000    0.017242307              0    0.073452075    0.022286609 
    4000     4000    0.019743358              0    0.073452075    0.022836884 
    5000     4000    0.021043027              0    0.073452075    0.023339294 
    6000     4000    0.019912417              0    0.073452075    0.023805874 
    7000     4000    0.016107655              0    0.073452075    0.024504181 
    8000     4000   0.0084887649              0    0.073452075    0.024833933 
    9000     4000   0.0012268574              0    0.073452075    0.024842289 
   10000     4000  0.00026441811              0    0.073452075    0.021995747 
   11000     4000   0.0001173795              0    0.073452075    0.020542627 
   12000     4000  5.3672484e-05              0    0.073452075    0.018502482 
   13000     4000   3.072288e-05              0    0.073452075    0.018536358 
   14000     4000  1.5404507e-05              0    0.073452075    0.018894078 
   15000     4000  8.8382192e-06              0    0.073452075    0.017384582 
   16000     4000  5.3784135e-06              0    0.073452075    0.017316524 
   17000     4000  4.5131327e-06              0    0.073452075    0.016916885 
   18000     4000  2.5046675e-06              0    0.073452075    0.017639905 
   19000     4000  1.4059007e-06              0    0.073452075     0.01576436 
   20000     4000  7.5925351e-07              0    0.073452075    0.015388502 
   21000     4000  6.8911515e-07              0    0.073452075    0.014880553 
   22000     4000  4.1572503e-07              0    0.073452075    0.015214018 
   23000     4000  3.0765487e-07              0    0.073452075    0.014921527 
   24000     4000  4.5584651e-07              0    0.073452075    0.016654947 
   25000     4000  3.4515087e-07              0    0.073452075    0.015503653 
   26000     4000  5.3087261e-07              0    0.073452075    0.016837745 
   27000     4000  1.0806539e-07              0    0.073452075    0.014570037 
   28000     4000  2.2788786e-08              0    0.073452075    0.011335323 
   29000     4000  2.0501279e-08              0    0.073452075    0.011861686 
   30000     4000  5.7305427e-08              0    0.073452075    0.014146474 
   31000     4000  4.0983419e-08              0    0.073452075    0.012995946 
   32000     4000  3.9245843e-09              0    0.073452075    0.010265805 
   33000     4000  2.4608765e-09              0    0.073452075   0.0099547071 
   34000     4000  1.7897302e-09              0    0.073452075   0.0096120638 
   35000     4000  1.1357545e-09              0    0.073452075   0.0093582933 
   36000     4000  7.1366172e-10              0    0.073452075   0.0066426074 
   37000     4000   1.966681e-10              0    0.073452075   0.0069976614 
   38000     4000  5.0181946e-10              0    0.073452075   0.0057511957 
   39000     4000  1.8564279e-10              0    0.073452075   0.0061315633 
   40000     4000  2.9539159e-10              0    0.073452075   0.0060779291 
   41000     4000  2.5097461e-10              0    0.073452075   0.0054981514 
   42000     4000  1.6841685e-10              0    0.073452075   0.0059883912 
   43000     4000  2.6076967e-10              0    0.073452075   0.0060517369 
   44000     4000  9.2067335e-11              0    0.073452075   0.0055905161 
   45000     4000  2.4074931e-10              0    0.073452075   0.0059324433 
   46000     4000  7.4326464e-11              0    0.073452075   0.0059969075 
   47000     4000  1.8219988e-10              0    0.073452075    0.005709052 
   48000     4000  7.9151229e-11              0    0.073452075   0.0056261931 
   49000     4000  1.1742476e-10              0    0.073452075   0.0059126154 
   50000     4000  1.0548153e-10              0    0.073452075   0.0058202405 
Loop time of 30.4027 on 2 procs for 50000 steps with 4000 atoms, finish time Fri Jun 12 15:47:04 2026


Pair  time (%) = 17.3973 (57.2227)
Neigh time (%) = 0.110612 (0.363823)
Comm  time (%) = 0.581946 (1.91412)
Outpt time (%) = 0.0076665 (0.0252165)
Other time (%) = 12.3052 (40.4741)

Nlocal:    2000 ave 2002 max 1998 min
Histogram: 1 0 0 0 0 0 0 0 0 1
Nghost:    377 ave 384 max 370 min
Histogram: 1 0 0 0 0 0 0 0 0 1
Neighs:    14026.5 ave 14048 max 14005 min
Histogram: 1 0 0 0 0 0 0 0 0 1

Total # of neighbors = 28053
Ave neighs/atom = 7.01325
Neighbor list builds = 75
Dangerous builds = 0
AUDIT settle: atoms = 4000 (target 4000)
Setting up run at Fri Jun 12 15:47:04 2026

Memory usage per processor = 21.1372 Mbytes
    Step    Atoms         KinEng          ms[1]          ts[1]          ts[2] 
   50000     4000  1.0548153e-10              0    0.073452075   0.0058202405 
   51000     4000  2.4580106e-05              0    0.073452075    0.020007757 
   52000     4000  5.0927428e-05              0    0.073452075    0.020461642 
   53000     4000  7.0600204e-05              0    0.073452075    0.020880685 
   54000     4000  0.00010799695              0    0.073452075    0.021298696 
   55000     4000  0.00016858398              0    0.073452075    0.021660077 
   56000     4000  0.00024550603              0    0.073452075    0.022208921 
   57000     4000  0.00034444516              0    0.073452075    0.022808165 
   58000     4000  0.00046748988              0    0.073452075    0.023350341 
   59000     4000  0.00061135574              0    0.073452075    0.023846389 
   60000     3985  0.00059069317  0.00058038013    0.073452075     0.02415273 
   61000     3964  0.00047566799   0.0013009634    0.073452075    0.024221241 
   61250     3964  0.00051033429    0.001338094    0.073452075    0.024221241 
Loop time of 7.63376 on 2 procs for 11250 steps with 3964 atoms, finish time Fri Jun 12 15:47:11 2026


Pair  time (%) = 4.45142 (58.3123)
Neigh time (%) = 0.0860635 (1.12741)
Comm  time (%) = 0.140746 (1.84372)
Outpt time (%) = 0.0001885 (0.00246929)
Other time (%) = 2.95534 (38.7141)

Nlocal:    1982 ave 1985 max 1979 min
Histogram: 1 0 0 0 0 0 0 0 0 1
Nghost:    380.5 ave 386 max 375 min
Histogram: 1 0 0 0 0 0 0 0 0 1
Neighs:    13568.5 ave 13582 max 13555 min
Histogram: 1 0 0 0 0 0 0 0 0 1

Total # of neighbors = 27137
Ave neighs/atom = 6.84586
Neighbor list builds = 54
Dangerous builds = 0
Setting up run at Fri Jun 12 15:47:11 2026

Memory usage per processor = 21.1371 Mbytes
    Step    Atoms         KinEng          ms[1]          ts[1]          ts[2] 
   61250     3964  0.00051033429    0.001338094    0.073452075    0.024221241 
   62000     3954  0.00047577077   0.0016570954    0.073452075    0.024183412 
   63000     3945  0.00048597826    0.001984416    0.073452075    0.024339604 
   64000     3940  0.00057600244   0.0021534304    0.073452075    0.024165875 
   65000     3933  0.00063782253   0.0024148092    0.073452075    0.024173669 
   66000     3928  0.00068920066   0.0026859718    0.073452075    0.024333917 
   67000     3912  0.00059031417     0.00320041    0.073452075    0.024387779 
   68000     3901  0.00057716081   0.0035951372    0.073452075    0.024302103 
   69000     3893  0.00059988437   0.0039117496    0.073452075    0.024593905 
   70000     3884  0.00062586358   0.0042580977    0.073452075    0.024428702 
   71000     3871  0.00059115495   0.0047368699    0.073452075    0.024525083 
   72000     3863  0.00060014972   0.0050285246    0.073452075    0.024251291 
   73000     3855  0.00063062876   0.0053382824    0.073452075    0.024339085 
   74000     3846  0.00064679722   0.0057330096    0.073452075    0.024579037 
   75000     3833  0.00058515666   0.0061268124    0.073452075    0.024203831 
   76000     3824  0.00060162116   0.0064820201    0.073452075    0.024486358 
   77000     3817  0.00063147905   0.0067380088    0.073452075    0.024313994 
   78000     3805  0.00060152893   0.0071546926    0.073452075    0.024456513 
   79000     3795  0.00060226954   0.0074941861    0.073452075    0.024467588 
   80000     3783  0.00057572797   0.0079988405    0.073452075    0.024651247 
   81000     3775  0.00060857427   0.0083012034    0.073452075    0.024528253 
   82000     3763   0.0005838042   0.0086890759    0.073452075    0.024525161 
   83000     3752  0.00055763084   0.0090163966    0.073452075    0.024476083 
   84000     3737  0.00047001582   0.0095581815    0.073452075    0.024377282 
   85000     3733  0.00055015832   0.0096900654    0.073452075    0.024453632 
   86000     3724  0.00056619412    0.010000748    0.073452075    0.024335627 
   87000     3715  0.00057251354    0.010328068    0.073452075    0.024328566 
   88000     3702  0.00054915918    0.010798521    0.073452075    0.024444542 
   89000     3695  0.00060908307    0.011053045    0.073452075     0.02436906 
   90000     3683  0.00059533408    0.011465335    0.073452075    0.024391138 
   91000     3675  0.00061589712    0.011774553    0.073452075    0.024512316 
   92000     3666  0.00065640868    0.012048104    0.073452075    0.024303855 
   93000     3658  0.00072683574    0.012329975    0.073452075     0.02435771 
   94000     3646  0.00073629604    0.012836634    0.073452075      0.0243368 
   95000     3632  0.00068866208    0.013315407    0.073452075    0.024443143 
   96000     3618  0.00061164365    0.013842558    0.073452075    0.024498241 
   97000     3607  0.00058757592    0.014228966    0.073452075    0.024547136 
   98000     3595  0.00056739528    0.014652504    0.073452075    0.024381023 
   99000     3586   0.0005703645    0.015028204    0.073452075      0.0244495 
  100000     3578   0.0005906695    0.015318394    0.073452075    0.024557882 
  101000     3569  0.00058242145    0.015610049    0.073452075    0.024403374 
  102000     3561  0.00061633699    0.015960791    0.073452075    0.024388375 
  103000     3552  0.00065039619    0.016241737    0.073452075    0.024472476 
  104000     3539  0.00064892151    0.016768348    0.073452075    0.024523767 
  105000     3529  0.00067807014    0.017069247    0.073452075    0.024537842 
  106000     3518   0.0006951354    0.017519207    0.073452075    0.024519154 
  107000     3502  0.00064004001    0.018007223    0.073452075    0.024557306 
  108000     3490  0.00059943925     0.01845572    0.073452075    0.024535452 
  109000     3482   0.0006539416    0.018711168    0.073452075    0.024382138 
  110000     3472  0.00066569848    0.019133242    0.073452075    0.024483332 
  111000     3463  0.00063259743    0.019451319    0.073452075    0.024596721 
  112000     3455  0.00066948432    0.019686275    0.073452075    0.024430304 
  113000     3446  0.00069849407    0.020052191    0.073452075    0.024577571 
  114000     3437  0.00072648312     0.02039908    0.073452075     0.02459564 
  115000     3421  0.00066120524    0.020990708    0.073452075     0.02468665 
  116000     3410  0.00065579383    0.021348305    0.073452075    0.024584876 
  117000     3400  0.00065560764    0.021714221    0.073452075     0.02455204 
  118000     3390  0.00063750867    0.022133906    0.073452075    0.024419542 
  119000     3382  0.00067553176    0.022490038    0.073452075    0.024490572 
  120000     3369  0.00062812851    0.022939074    0.073452075    0.024584252 
  121000     3356  0.00057710704    0.023380716    0.073452075    0.024556163 
  122000     3346  0.00055285992    0.023802406    0.073452075    0.024633752 
  123000     3338  0.00058502374    0.024075957    0.073452075    0.024561862 
  124000     3329  0.00060103311    0.024441873    0.073452075    0.024486822 
  125000     3321  0.00065236733    0.024676829    0.073452075     0.02434833 
  126000     3312  0.00068647963    0.025069168    0.073452075    0.024560519 
  127000     3299  0.00067861139    0.025509345    0.073452075    0.024535736 
  128000     3290  0.00069890663    0.025829811    0.073452075    0.024393291 
  129000     3278  0.00068892721    0.026254814    0.073452075    0.024394071 
  130000     3268  0.00068611566    0.026648076    0.073452075    0.024457245 
  131000     3256   0.0006635171    0.027183007    0.073452075    0.024603857 
  132000     3241  0.00059318347     0.02756795    0.073452075    0.024550408 
  133000     3230  0.00057241286    0.028019375    0.073452075    0.024506836 
  134000     3223   0.0006152654    0.028272435    0.073452075    0.024537562 
  135000     3210  0.00056536905    0.028750283    0.073452075    0.024453632 
  136000     3201  0.00055483599    0.029087387    0.073452075    0.024490464 
  137000     3195  0.00061734255    0.029285213    0.073452075    0.024428466 
  138000     3187   0.0006074569    0.029723001    0.073452075    0.024537123 
  139000     3177    0.000594705    0.030003948    0.073452075    0.024446328 
  140000     3169  0.00062606537    0.030304846    0.073452075    0.024491989 
  141000     3162  0.00068893317    0.030520775    0.073452075     0.02446172 
  142000     3151  0.00066937614    0.031009331    0.073452075    0.024552173 
  143000     3135   0.0005875158    0.031607814    0.073452075    0.024601368 
  144000     3123  0.00052040882    0.032001617    0.073452075    0.024502681 
  145000     3113  0.00048963463    0.032385636    0.073452075    0.024403177 
  146000     3106  0.00051238695    0.032638695    0.073452075    0.024521679 
  147000     3098  0.00051983767    0.032938669    0.073452075    0.024270896 
  148000     3090  0.00053029862    0.033228859    0.073452075    0.024384643 
  149000     3082  0.00053404392    0.033574283    0.073452075    0.024485285 
  150000     3073  0.00053325663     0.03388643    0.073452075    0.024498231 
  151000     3064  0.00052256457    0.034217604    0.073452075    0.024688551 
  152000     3054  0.00047326176    0.034572812    0.073452075     0.02459805 
  153000     3042  0.00038664639     0.03500521    0.073452075    0.024621583 
  154000     3034  0.00035780953    0.035288545    0.073452075     0.02438498 
  155000     3030  0.00037991618    0.035475663    0.073452075     0.02473339 
  156000     3024  0.00038217459    0.035664245    0.073452075    0.024606547 
  157000     3017  0.00037267728    0.035899201    0.073452075    0.024429141 
  158000     3012    0.000405567       0.036078    0.073452075    0.024416092 
  159000     3006  0.00042295859    0.036293928    0.073452075    0.024571646 
  160000     3000  0.00043392996    0.036565091    0.073452075    0.024456224 
  161000     2994  0.00045303562    0.036836254    0.073452075    0.024368665 
  162000     2988  0.00047912885    0.037023371    0.073452075    0.024234046 
  163000     2980  0.00048511994    0.037294534    0.073452075    0.024432471 
  164000     2973  0.00049684191    0.037594508    0.073452075    0.024608948 
  165000     2963   0.0004534681    0.037942861    0.073452075    0.024448223 
  166000     2956  0.00046734493    0.038194456    0.073452075    0.024478742 
  167000     2951  0.00051717921    0.038381573    0.073452075     0.02443515 
  168000     2943  0.00052187857    0.038721607    0.073452075    0.024825662 
  169000     2938  0.00059004917    0.038900405    0.073452075    0.024536201 
  170000     2933  0.00065825043     0.03910655    0.073452075    0.024484177 
  171000     2918  0.00060590489    0.039555971    0.073452075    0.024501573 
  172000     2910  0.00064023074    0.039874972    0.073452075    0.024365926 
  173000     2898  0.00062347771    0.040313685    0.073452075    0.024404415 
  174000     2887  0.00064530644     0.04063654    0.073452075    0.024297793 
  175000     2878  0.00068165899    0.040984352    0.073452075    0.024456328 
  176000     2865  0.00065758584    0.041435778    0.073452075    0.024581299 
  177000     2859  0.00073560517    0.041803158    0.073452075    0.024532031 
  178000     2847  0.00075233287     0.04207671    0.073452075    0.024307368 
  179000     2838   0.0008117531    0.042498784    0.073452075    0.024462679 
  180000     2816   0.0006705502    0.043218443    0.073452075     0.02437055 
  181000     2807   0.0006979641    0.043660084    0.073452075    0.024458857 
  182000     2792  0.00064707115     0.04406552    0.073452075    0.024521953 
  183000     2782  0.00065014391    0.044423116    0.073452075    0.024512046 
  184000     2775  0.00070402833    0.044758756    0.073452075    0.024510651 
  185000     2761  0.00066381004    0.045235139    0.073452075    0.024470009 
  186000     2750  0.00062989343    0.045750118    0.073452075    0.024413758 
  187000     2736  0.00057027461    0.046220571    0.073452075    0.024463214 
  188000     2727  0.00056796996    0.046502442    0.073452075     0.02436136 
  189000     2721  0.00059964703    0.046737938    0.073452075    0.024324864 
  190000     2712  0.00061056495    0.047076507    0.073452075    0.024229725 
  191000     2703  0.00062456229    0.047533863    0.073452075    0.024396097 
  192000     2689  0.00055849604    0.047955937    0.073452075    0.024579992 
  193000     2681  0.00057240553    0.048255911    0.073452075    0.024399614 
  194000     2671  0.00057540101    0.048650638    0.073452075    0.024479107 
  195000     2661  0.00055829282    0.048977959    0.073452075    0.024348311 
  196000     2651  0.00055365047    0.049362902    0.073452075    0.024371297 
  197000     2644  0.00059853716    0.049663801    0.073452075    0.024458946 
  198000     2633  0.00056723082    0.050020473    0.073452075    0.024414003 
  199000     2623   0.0005610942    0.050394708    0.073452075    0.024348324 
  200000     2614  0.00057859359    0.050712245    0.073452075    0.024349086 
  201000     2605  0.00059491766    0.051002435    0.073452075    0.024405979 
  202000     2593  0.00056480975    0.051454785    0.073452075    0.024299598 
  203000     2583  0.00054519661    0.051903821    0.073452075    0.024482987 
  204000     2571  0.00051586331    0.052233531    0.073452075    0.024507822 
  205000     2561  0.00048883048    0.052619014    0.073452075    0.024568272 
  206000     2554    0.000497346    0.052881858    0.073452075    0.024257135 
  207000     2541   0.0004403164    0.053339598    0.073452075    0.024333822 
  208000     2535   0.0004618837    0.053555526    0.073452075    0.024434893 
  209000     2524  0.00042343115    0.053933615    0.073452075    0.024158042 
  210000     2517  0.00043037334    0.054204778    0.073452075    0.024364349 
  211000     2511  0.00045473536    0.054503287    0.073452075    0.024491801 
  212000     2503  0.00044849527    0.054719216    0.073452075    0.024485755 
  213000     2497  0.00046763797    0.054953248    0.073452075    0.024684539 
  214000     2490  0.00048736954    0.055197988    0.073452075    0.024256419 
  215000     2485   0.0005450253    0.055385106    0.073452075    0.024516906 
  216000     2476  0.00056755428    0.055698177    0.073452075     0.02447937 
  217000     2464  0.00051921704    0.056101223    0.073452075    0.024391139 
  218000     2456  0.00052442916    0.056410441    0.073452075    0.024538791 
  219000     2447  0.00051731713    0.056774892    0.073452075    0.024544357 
  220000     2438  0.00050411684    0.057011313    0.073452075    0.024397028 
  221000     2430  0.00050362058    0.057301503    0.073452075     0.02439102 
  222000     2421  0.00047918118    0.057658175    0.073452075    0.024433623 
  223000     2413  0.00047433383     0.05794983    0.073452075    0.024314253 
  224000     2404  0.00046093451    0.058343633    0.073452075    0.024380645 
  225000     2397  0.00045722809    0.058626968    0.073452075     0.02436725 
Loop time of 85.1528 on 2 procs for 163750 steps with 2397 atoms, finish time Fri Jun 12 15:48:36 2026


Pair  time (%) = 46.4394 (54.5365)
Neigh time (%) = 1.461 (1.71574)
Comm  time (%) = 1.60059 (1.87967)
Outpt time (%) = 0.0262925 (0.0308768)
Other time (%) = 35.6256 (41.8372)

Nlocal:    1198.5 ave 1201 max 1196 min
Histogram: 1 0 0 0 0 0 0 0 0 1
Nghost:    193 ave 196 max 190 min
Histogram: 1 0 0 0 0 0 0 0 0 1
Neighs:    7388.5 ave 7409 max 7368 min
Histogram: 1 0 0 0 0 0 0 0 0 1

Total # of neighbors = 14777
Ave neighs/atom = 6.16479
Neighbor list builds = 1166
Dangerous builds = 0
AUDIT discharge-end: crossed mass = 0.0586269682784066 kg, atoms left = 2397
