LIGGGHTS (Version LIGGGHTS-PUBLIC 3.8.0, compiled 2026-06-11-14:52:41 by joshuamayo, git commit 3d5c00f20519e6bb6eb6756f51f1ad36564e649d)
# drum45.in — 45deg-INCLINED rotating-drum dynamic angle-of-repose test
# (Phase 10 hold-out validation; derived from drum.in, which stays the
# vertical-drum calibration response).
#
# The tilt is realized by TILTING GRAVITY IN THE DRUM FRAME, not the meshes:
# tilting the apparatus is the same physics as tilting g, and the engine
# blocks a mesh tilt anyway (region cylinder and primitive walls are
# axis-aligned only — re-deriving the streamed-insertion region is the
# Phase-9 over-insertion trap). Both STLs, the rotation axis, the insertion
# region, and the backstops are reused from drum.in unchanged.
#
# Convention (Sugirbay et al. 2022): alpha = 90 deg is the vertical drum
# (axis horizontal — drum.in); alpha = 45 deg raises the axis 45 deg. With
# TILT = 90 - alpha, gravity in drum coordinates is
#     g = 9.81 * (0, -sin(TILT), -cos(TILT))
# The axial (-y) component presses the bed against the -y cover (the
# "material side" whose trace Sugirbay digitizes); the in-plane component
# still drives the x-z flow, so the bed climbs -x and dz/dx < 0 holds.
# TILT = 0 reproduces drum.in behavior exactly.
#
# Hold-out protocol: ACRYLIC drum, alpha = 45 deg, 5 rpm, 50% fill.
# Target: dynamic AoR 43.65 deg +/- 2.92 deg (Table 1/2; see
# experiments/ground-truth-wheat-literature.md, "45 deg inclined drum").
# At 45 deg the shell material is strongly significant (their ANOVA
# p < 0.001), so FRICPW/ROLLFRICPW are FIXED PROTOCOL INPUTS at the
# published wheat-acrylic pair (Table 11: 0.36/0.29 — calibrated on their
# 7-sphere clumps, carried as-is), NEVER mirrored from the calibrated FRIC.
# In the acrylic drum the shell, back face, and cover are all acrylic, so
# shell (type 2) and covers (type 3) carry the same pair — only the
# particle-particle set under test varies.
#
# Run (from repo root):
#   mpirun -np 2 lmp_auto -in templates/drum45.in \
#       -var TAG dev -var FRIC 0.4001 -var ROLLFRIC 0.1374 -var REST 0.5762 \
#       -log log.dev
#
# Atom types: 1 = particles, 2 = drum shell (rotating mesh, wheat-acrylic),
# 3 = end covers (CO-ROTATING cap-disk mesh, wheat-acrylic). Frictionless
# primitive y-planes remain parked just OUTSIDE the cover disks (CAPY) as a
# containment backstop only. property/global peratomtypepair 3 takes the
# symmetric 3x3 matrix in row order (1,1) (1,2) (1,3) (2,1) (2,2) (2,3)
# (3,1) (3,2) (3,3); wall-wall entries are never exercised.

# ---------------------------------------------------------------- variables
variable FRIC       index 0.40          # mu_s particle-particle  [under test]
variable FRICPW     index 0.36          # mu_s particle-shell [FIXED protocol input:
                                        # wheat-acrylic, Sugirbay Table 11 — at 45 deg the
                                        # shell material is significant; never mirror FRIC]
variable ROLLFRIC   index 0.12          # mu_r particle-particle, epsd2 [under test]
variable ROLLFRICPW index 0.29          # mu_r particle-shell [FIXED: wheat-acrylic, ditto]
variable REST       index 0.50          # restitution             [under test, weak]
variable CAPFRIC    index 0.36          # mu_s particle-cover, CO-ROTATING cap mesh [FIXED:
                                        # wheat-acrylic — acrylic drum: covers = shell]
variable CAPROLL    index 0.29          # mu_r particle-cover [wheat-acrylic, ditto]
variable HALFL      index 0.0125        # drum mesh half-length [m] — pass 0.025 with the
                                        # l0.050 meshes + NPART 9200 for the 50 mm
                                        # length-sensitivity run (M3 add-on)
variable TILT       index 45.0          # drum-axis tilt from horizontal [deg] = 90 - alpha;
                                        # 0.0 reproduces the vertical drum (drum.in)
variable SEED       index 49979687      # insertion seed — the seed-to-seed noise lever
# (particletemplate + distribution seeds are fixed distinct primes below;
#  LIGGGHTS requires all five seeds to be distinct.)
variable TAG        index dev           # output label
variable ROTPER     index 12.0          # drum rotation period [s] = 5 rpm (published protocol
                                        # holds at 45 deg; Fr ~ 2.1e-3, rolling regime)
variable SETTLET    index 0.8           # settle stage duration [s] (streamed insertion)
variable SPINUP     index 7.0           # discarded spin-up transient [s] — far longer than
                                        # the vertical drum's 3.0 s: in-plane gravity is
                                        # sqrt(2) weaker at 45 deg and the M2 smokes showed
                                        # the slab angle still climbing until ~7 s of
                                        # rotation (46.8 -> 50.3 deg), flat thereafter
variable MEASURE    index 6.4           # steady-state measurement window [s] — the 45-deg
                                        # cover-slab flow is INTERMITTENT (avalanche cycle
                                        # ~2-3 s, frame spread ~2.4 deg; M2 smoke), so the
                                        # window must cover >= 2 cycles or the OLS drift
                                        # guard reads cycle phase as un-steadiness
variable DUMPDT     index 0.2           # dump frame spacing [s] -> 33 steady frames
variable NPART      index 4600          # particles = 50% fill: 0.5*pi*R^2*L * (780/1400) / v_mean
variable MESH       index templates/meshes/drum_r0.075_l0.025.stl
variable CMESH      index templates/meshes/drum_caps_r0.075_l0.025.stl
variable YMOD       index 1.0e7         # softened Young's modulus [Pa] (numerical device)
variable DT         index 8.0e-6        # timestep [s] (paired with YMOD)
variable GRAVZ      index -1.0          # gravity sign; -1.0 = normal (fault-injection knob —
                                        # flips BOTH tilted components)

# fixed (non-calibrated) material inputs
variable POIS       equal 0.25          # Poisson ratio
variable RHO        equal 1400          # particle density [kg/m3]

# derived gravity direction (drum frame; fix gravity normalizes the vector)
variable gy equal v_GRAVZ*sin(v_TILT*PI/180)
variable gz equal v_GRAVZ*cos(v_TILT*PI/180)

# derived from HALFL (25 mm defaults reproduce drum.in's literals exactly):
# CAPY — frictionless primitive backstop planes parked 1 mm OUTSIDE the
# cover disks, unreachable in normal operation; YINS — insertion-region
# half-extent, must COVER every reachable particle center (HALFL - r_min =
# HALFL - 0.0017) while staying inside the covers (cf. drum.in's 0.011)
variable CAPY equal v_HALFL+0.001
variable YINS equal v_HALFL-0.0015

# derived stage durations — floor(x+0.5) not ceil: ceil() turns FP noise in
# the division into off-by-one step counts (0.2/8e-6 -> 25001), which breaks
# the runner's frame-step bookkeeping
variable settlesteps equal floor(v_SETTLET/v_DT+0.5)
variable spinsteps   equal floor(v_SPINUP/v_DT+0.5)
variable meassteps   equal floor(v_MEASURE/v_DT+0.5)
variable dumpevery   equal floor(v_DUMPDT/v_DT+0.5)
variable insevery    equal floor(0.1/v_DT+0.5)

# ---------------------------------------------------------------- setup
atom_style	granular
atom_modify	map array
boundary	m m m
newton		off
communicate	single vel yes
units		si

region		reg block -0.085 0.085 -0.06 0.06 -0.085 0.085 units box
create_box	3 reg
Created orthogonal box = (-0.085 -0.06 -0.085) to (0.085 0.06 0.085)
  1 by 1 by 2 MPI processor grid

neighbor	0.002 bin
neigh_modify	delay 0

# ---------------------------------------------------------------- material / contact model
fix 	m1 all property/global youngsModulus peratomtype ${YMOD} ${YMOD} ${YMOD}
fix 	m1 all property/global youngsModulus peratomtype 1.0e7 ${YMOD} ${YMOD}
fix 	m1 all property/global youngsModulus peratomtype 1.0e7 1.0e7 ${YMOD}
fix 	m1 all property/global youngsModulus peratomtype 1.0e7 1.0e7 1.0e7
fix 	m2 all property/global poissonsRatio peratomtype ${POIS} ${POIS} ${POIS}
fix 	m2 all property/global poissonsRatio peratomtype 0.25 ${POIS} ${POIS}
fix 	m2 all property/global poissonsRatio peratomtype 0.25 0.25 ${POIS}
fix 	m2 all property/global poissonsRatio peratomtype 0.25 0.25 0.25
fix 	m3 all property/global coefficientRestitution peratomtypepair 3 		${REST} ${REST} ${REST} 		${REST} ${REST} ${REST} 		${REST} ${REST} ${REST}
fix 	m3 all property/global coefficientRestitution peratomtypepair 3 		0.5762 ${REST} ${REST} 		${REST} ${REST} ${REST} 		${REST} ${REST} ${REST}
fix 	m3 all property/global coefficientRestitution peratomtypepair 3 		0.5762 0.5762 ${REST} 		${REST} ${REST} ${REST} 		${REST} ${REST} ${REST}
fix 	m3 all property/global coefficientRestitution peratomtypepair 3 		0.5762 0.5762 0.5762 		${REST} ${REST} ${REST} 		${REST} ${REST} ${REST}
fix 	m3 all property/global coefficientRestitution peratomtypepair 3 		0.5762 0.5762 0.5762 		0.5762 ${REST} ${REST} 		${REST} ${REST} ${REST}
fix 	m3 all property/global coefficientRestitution peratomtypepair 3 		0.5762 0.5762 0.5762 		0.5762 0.5762 ${REST} 		${REST} ${REST} ${REST}
fix 	m3 all property/global coefficientRestitution peratomtypepair 3 		0.5762 0.5762 0.5762 		0.5762 0.5762 0.5762 		${REST} ${REST} ${REST}
fix 	m3 all property/global coefficientRestitution peratomtypepair 3 		0.5762 0.5762 0.5762 		0.5762 0.5762 0.5762 		0.5762 ${REST} ${REST}
fix 	m3 all property/global coefficientRestitution peratomtypepair 3 		0.5762 0.5762 0.5762 		0.5762 0.5762 0.5762 		0.5762 0.5762 ${REST}
fix 	m3 all property/global coefficientRestitution peratomtypepair 3 		0.5762 0.5762 0.5762 		0.5762 0.5762 0.5762 		0.5762 0.5762 0.5762
fix 	m4 all property/global coefficientFriction peratomtypepair 3 		${FRIC} ${FRICPW} ${CAPFRIC} 		${FRICPW} ${FRICPW} ${FRICPW} 		${CAPFRIC} ${FRICPW} ${FRICPW}
fix 	m4 all property/global coefficientFriction peratomtypepair 3 		0.4001 ${FRICPW} ${CAPFRIC} 		${FRICPW} ${FRICPW} ${FRICPW} 		${CAPFRIC} ${FRICPW} ${FRICPW}
fix 	m4 all property/global coefficientFriction peratomtypepair 3 		0.4001 0.36 ${CAPFRIC} 		${FRICPW} ${FRICPW} ${FRICPW} 		${CAPFRIC} ${FRICPW} ${FRICPW}
fix 	m4 all property/global coefficientFriction peratomtypepair 3 		0.4001 0.36 0.36 		${FRICPW} ${FRICPW} ${FRICPW} 		${CAPFRIC} ${FRICPW} ${FRICPW}
fix 	m4 all property/global coefficientFriction peratomtypepair 3 		0.4001 0.36 0.36 		0.36 ${FRICPW} ${FRICPW} 		${CAPFRIC} ${FRICPW} ${FRICPW}
fix 	m4 all property/global coefficientFriction peratomtypepair 3 		0.4001 0.36 0.36 		0.36 0.36 ${FRICPW} 		${CAPFRIC} ${FRICPW} ${FRICPW}
fix 	m4 all property/global coefficientFriction peratomtypepair 3 		0.4001 0.36 0.36 		0.36 0.36 0.36 		${CAPFRIC} ${FRICPW} ${FRICPW}
fix 	m4 all property/global coefficientFriction peratomtypepair 3 		0.4001 0.36 0.36 		0.36 0.36 0.36 		0.36 ${FRICPW} ${FRICPW}
fix 	m4 all property/global coefficientFriction peratomtypepair 3 		0.4001 0.36 0.36 		0.36 0.36 0.36 		0.36 0.36 ${FRICPW}
fix 	m4 all property/global coefficientFriction peratomtypepair 3 		0.4001 0.36 0.36 		0.36 0.36 0.36 		0.36 0.36 0.36
fix 	m5 all property/global coefficientRollingFriction peratomtypepair 3 		${ROLLFRIC} ${ROLLFRICPW} ${CAPROLL} 		${ROLLFRICPW} ${ROLLFRICPW} ${ROLLFRICPW} 		${CAPROLL} ${ROLLFRICPW} ${ROLLFRICPW}
fix 	m5 all property/global coefficientRollingFriction peratomtypepair 3 		0.1374 ${ROLLFRICPW} ${CAPROLL} 		${ROLLFRICPW} ${ROLLFRICPW} ${ROLLFRICPW} 		${CAPROLL} ${ROLLFRICPW} ${ROLLFRICPW}
fix 	m5 all property/global coefficientRollingFriction peratomtypepair 3 		0.1374 0.29 ${CAPROLL} 		${ROLLFRICPW} ${ROLLFRICPW} ${ROLLFRICPW} 		${CAPROLL} ${ROLLFRICPW} ${ROLLFRICPW}
fix 	m5 all property/global coefficientRollingFriction peratomtypepair 3 		0.1374 0.29 0.29 		${ROLLFRICPW} ${ROLLFRICPW} ${ROLLFRICPW} 		${CAPROLL} ${ROLLFRICPW} ${ROLLFRICPW}
fix 	m5 all property/global coefficientRollingFriction peratomtypepair 3 		0.1374 0.29 0.29 		0.29 ${ROLLFRICPW} ${ROLLFRICPW} 		${CAPROLL} ${ROLLFRICPW} ${ROLLFRICPW}
fix 	m5 all property/global coefficientRollingFriction peratomtypepair 3 		0.1374 0.29 0.29 		0.29 0.29 ${ROLLFRICPW} 		${CAPROLL} ${ROLLFRICPW} ${ROLLFRICPW}
fix 	m5 all property/global coefficientRollingFriction peratomtypepair 3 		0.1374 0.29 0.29 		0.29 0.29 0.29 		${CAPROLL} ${ROLLFRICPW} ${ROLLFRICPW}
fix 	m5 all property/global coefficientRollingFriction peratomtypepair 3 		0.1374 0.29 0.29 		0.29 0.29 0.29 		0.29 ${ROLLFRICPW} ${ROLLFRICPW}
fix 	m5 all property/global coefficientRollingFriction peratomtypepair 3 		0.1374 0.29 0.29 		0.29 0.29 0.29 		0.29 0.29 ${ROLLFRICPW}
fix 	m5 all property/global coefficientRollingFriction peratomtypepair 3 		0.1374 0.29 0.29 		0.29 0.29 0.29 		0.29 0.29 0.29

pair_style gran model hertz tangential history rolling_friction epsd2
WARNING: 
	The contact model you specified is not located in any whitelist.
	Because of this the model will be run in an unoptimized version (increasing runtime by up to 20%).
	In order to optimize this model you have the following options:
		(i)  Run the genAutoExamplesWhitelist.sh script in your LIGGGHTS(R) source folder to automatically parse the input script
		(ii) Add the model combination by hand to your style_contact_model_user.whitelist that can be found in your LIGGGHTS(R) source folder
		(iii) Use the ENABLE_MODEL_* flag when building with cmake.
	If you perform one of the steps above LIGGGHTS(R) needs to be recompiled to generate the optimized code.

 (../contact_models.h:365)
pair_coeff	* *

timestep	${DT}
timestep	8.0e-6

fix		gravi all gravity 9.81 vector 0.0 ${gy} ${gz}
fix		gravi all gravity 9.81 vector 0.0 -0.707106781186547 ${gz}
fix		gravi all gravity 9.81 vector 0.0 -0.707106781186547 -0.707106781186548

# containment backstop: frictionless-in-effect primitive y-planes parked
# outside the cover disks (type 3 pair would apply, but they are unreachable)
fix ycap1 all wall/gran model hertz tangential history rolling_friction epsd2 primitive type 3 yplane -${CAPY}
fix ycap1 all wall/gran model hertz tangential history rolling_friction epsd2 primitive type 3 yplane -0.026
WARNING: 
	The contact model you specified is not located in any whitelist.
	Because of this the model will be run in an unoptimized version (increasing runtime by up to 20%).
	In order to optimize this model you have the following options:
		(i)  Run the genAutoExamplesWhitelist.sh script in your LIGGGHTS(R) source folder to automatically parse the input script
		(ii) Add the model combination by hand to your style_contact_model_user.whitelist that can be found in your LIGGGHTS(R) source folder
		(iii) Use the ENABLE_MODEL_* flag when building with cmake.
	If you perform one of the steps above LIGGGHTS(R) needs to be recompiled to generate the optimized code.

 (../contact_models.h:365)
fix ycap2 all wall/gran model hertz tangential history rolling_friction epsd2 primitive type 3 yplane +${CAPY}
fix ycap2 all wall/gran model hertz tangential history rolling_friction epsd2 primitive type 3 yplane +0.026
WARNING: 
	The contact model you specified is not located in any whitelist.
	Because of this the model will be run in an unoptimized version (increasing runtime by up to 20%).
	In order to optimize this model you have the following options:
		(i)  Run the genAutoExamplesWhitelist.sh script in your LIGGGHTS(R) source folder to automatically parse the input script
		(ii) Add the model combination by hand to your style_contact_model_user.whitelist that can be found in your LIGGGHTS(R) source folder
		(iii) Use the ENABLE_MODEL_* flag when building with cmake.
	If you perform one of the steps above LIGGGHTS(R) needs to be recompiled to generate the optimized code.

 (../contact_models.h:365)

# drum shell (type 2, FRICPW) + co-rotating end covers (type 3, CAPFRIC):
# two meshes, one wall fix, both rotated in stage 2
fix drum all mesh/surface file ${MESH} type 2
fix drum all mesh/surface file ../../../templates/meshes/drum_r0.075_l0.050.stl type 2
fix caps all mesh/surface file ${CMESH} type 3
fix caps all mesh/surface file ../../../templates/meshes/drum_caps_r0.075_l0.050.stl type 3
fix drumwall all wall/gran model hertz tangential history rolling_friction epsd2 mesh n_meshes 2 meshes drum caps
WARNING: 
	The contact model you specified is not located in any whitelist.
	Because of this the model will be run in an unoptimized version (increasing runtime by up to 20%).
	In order to optimize this model you have the following options:
		(i)  Run the genAutoExamplesWhitelist.sh script in your LIGGGHTS(R) source folder to automatically parse the input script
		(ii) Add the model combination by hand to your style_contact_model_user.whitelist that can be found in your LIGGGHTS(R) source folder
		(iii) Use the ENABLE_MODEL_* flag when building with cmake.
	If you perform one of the steps above LIGGGHTS(R) needs to be recompiled to generate the optimized code.

 (../contact_models.h:365)

# ---------------------------------------------------------------- particles (fixed PSD)
# discrete distribution: d = 3.4 / 3.7 / 4.0 mm, mass weights 0.25 / 0.50 / 0.25
fix	pts1 all particletemplate/sphere 15485863 atom_type 1 density constant ${RHO} radius constant 0.0017
fix	pts1 all particletemplate/sphere 15485863 atom_type 1 density constant 1400 radius constant 0.0017
fix	pts2 all particletemplate/sphere 15485867 atom_type 1 density constant ${RHO} radius constant 0.00185
fix	pts2 all particletemplate/sphere 15485867 atom_type 1 density constant 1400 radius constant 0.00185
fix	pts3 all particletemplate/sphere 32452843 atom_type 1 density constant ${RHO} radius constant 0.0020
fix	pts3 all particletemplate/sphere 32452843 atom_type 1 density constant 1400 radius constant 0.0020
fix	pdd1 all particledistribution/discrete 32452867 3 pts1 0.25 pts2 0.50 pts3 0.25

# streamed insertion into the drum interior (region/count logic identical to
# drum.in — the tilted gravity only changes WHERE inserted particles settle,
# toward the -y cover, not the covering-region arithmetic)
region	bc cylinder y 0. 0. 0.0735 -${YINS} ${YINS} units box
region	bc cylinder y 0. 0. 0.0735 -0.0235 ${YINS} units box
region	bc cylinder y 0. 0. 0.0735 -0.0235 0.0235 units box
fix	ins all insert/pack seed ${SEED} distributiontemplate pdd1 vel constant 0. -0. -0.3 		insert_every ${insevery} overlapcheck yes all_in yes particles_in_region ${NPART} region bc
fix	ins all insert/pack seed 49979687 distributiontemplate pdd1 vel constant 0. -0. -0.3 		insert_every ${insevery} overlapcheck yes all_in yes particles_in_region ${NPART} region bc
fix	ins all insert/pack seed 49979687 distributiontemplate pdd1 vel constant 0. -0. -0.3 		insert_every 12500 overlapcheck yes all_in yes particles_in_region ${NPART} region bc
fix	ins all insert/pack seed 49979687 distributiontemplate pdd1 vel constant 0. -0. -0.3 		insert_every 12500 overlapcheck yes all_in yes particles_in_region 9200 region bc

fix	integr all nve/sphere

# timestep sanity (Phase-3 exit-criterion check)
fix	ts all check/timestep/gran 2000 0.1 0.1

# ---------------------------------------------------------------- output
compute	rke all erotate/sphere
thermo_style	custom step atoms ke c_rke f_ts[1] f_ts[2]
thermo		2000
thermo_modify	lost ignore norm no
dump	dmp all custom ${dumpevery} post/${TAG}_*.liggghts id type x y z vx vy vz omegax omegay omegaz radius
dump	dmp all custom 25000 post/${TAG}_*.liggghts id type x y z vx vy vz omegax omegay omegaz radius
dump	dmp all custom 25000 post/sens50_*.liggghts id type x y z vx vy vz omegax omegay omegaz radius
dump	dmpstl all mesh/stl ${dumpevery} post/${TAG}_mesh_*.stl
dump	dmpstl all mesh/stl 25000 post/${TAG}_mesh_*.stl
dump	dmpstl all mesh/stl 25000 post/sens50_mesh_*.stl

# ---------------------------------------------------------------- stages
# stage 1 — stream in particles and settle to a half-full bed (leaning on
# the -y cover under the tilted gravity)
run	${settlesteps}
run	100000
Setting up run at Fri Jun 12 22:26:20 2026

INFO: Particle insertion ins: inserting every 12500 steps
Memory usage per processor = 11.8464 Mbytes
    Step    Atoms         KinEng            rke          ts[1]          ts[2] 
       0        0              0              0              0              0 
INFO: Particle insertion ins: inserted 9200 particle templates (mass 3.349080e-01) at step 1
 - a total of 9200 particle templates (mass 3.349080e-01) inserted so far.
    2000     9200     0.02809765  5.9684114e-05    0.073452075    0.021532055 
    4000     9200    0.039980937  0.00019635374    0.073452075    0.022899233 
    6000     9200    0.039013971  0.00033027711    0.073452075    0.023886595 
    8000     9200    0.019997352  0.00043663577    0.073452075    0.024807397 
   10000     9200   0.0064035794  0.00022028098    0.073452075    0.024227481 
   12000     9200   0.0040148947  0.00014925317    0.073452075    0.023706787 
   14000     9200   0.0027665551  0.00011641588    0.073452075    0.023347613 
   16000     9200   0.0015895088   9.270422e-05    0.073452075    0.023179123 
   18000     9200  0.00068574866  6.0879987e-05    0.073452075    0.022005508 
   20000     9200  0.00026087624   3.677118e-05    0.073452075    0.021567552 
   22000     9200  9.3388439e-05  2.0145911e-05    0.073452075    0.020607142 
   24000     9200  3.5545249e-05  1.0812739e-05    0.073452075    0.019949882 
   26000     9200   1.613455e-05  7.0003109e-06    0.073452075    0.017602792 
   28000     9200  6.4084003e-06  3.4531753e-06    0.073452075    0.016526731 
   30000     9200  5.1578492e-06  2.9888373e-06    0.073452075    0.016935525 
   32000     9200   3.560407e-06  2.0465104e-06    0.073452075    0.017762733 
   34000     9200  3.0735054e-06  1.5512821e-06    0.073452075    0.017358116 
   36000     9200  1.2868171e-06  9.3628994e-07    0.073452075    0.016466499 
   38000     9200  1.1473361e-06  8.6826994e-07    0.073452075    0.016073008 
   40000     9200    4.70086e-07  3.8037824e-07    0.073452075    0.015651141 
   42000     9200  1.4091027e-07  1.2133819e-07    0.073452075    0.013041632 
   44000     9200  1.5809649e-07  8.9352562e-08    0.073452075    0.013936052 
   46000     9200  9.2518198e-08  4.9227573e-08    0.073452075    0.013810901 
   48000     9200  9.7057238e-08  5.9497584e-08    0.073452075    0.013780808 
   50000     9200   1.142783e-07  6.5255441e-08    0.073452075    0.014830866 
   52000     9200    1.03688e-08  1.7303675e-08    0.073452075    0.011541153 
   54000     9200  1.3171276e-08  2.1985275e-08    0.073452075    0.011719282 
   56000     9200  4.6083592e-09  1.6738059e-08    0.073452075   0.0097804138 
   58000     9200  9.0635318e-09  1.8407421e-08    0.073452075    0.011421954 
   60000     9200  5.9901717e-09  1.7773889e-08    0.073452075      0.0109866 
   62000     9200  1.3390368e-09  1.3005585e-08    0.073452075   0.0087077852 
   64000     9200   3.739955e-10  1.4505831e-09    0.073452075   0.0074474206 
   66000     9200  1.3662324e-10  9.2455313e-10    0.073452075   0.0051011542 
   68000     9200  1.4209305e-10  9.8232885e-10    0.073452075   0.0052594633 
   70000     9200  1.0208367e-10  9.1467275e-10    0.073452075   0.0054686555 
   72000     9200  6.3870459e-11  4.8180533e-10    0.073452075   0.0051752765 
   74000     9200  6.1442652e-11  3.2862962e-10    0.073452075   0.0051981211 
   76000     9200  4.3588931e-11  4.5114093e-10    0.073452075   0.0050307203 
   78000     9200  3.7793254e-11  8.5777965e-10    0.073452075   0.0054228677 
   80000     9200  4.2201417e-11  9.6143496e-10    0.073452075   0.0051904631 
   82000     9200  2.7799233e-11   7.419844e-10    0.073452075   0.0047477892 
   84000     9200  2.7488773e-11  4.9682673e-10    0.073452075   0.0050357579 
   86000     9200  2.4770409e-11  3.3148422e-10    0.073452075   0.0053298982 
   88000     9200   2.462771e-11  4.8726391e-10    0.073452075   0.0052735173 
   90000     9200  1.4677039e-11  6.6709807e-10    0.073452075   0.0048043814 
   92000     9200  1.5536218e-11  9.2471824e-10    0.073452075   0.0051465175 
   94000     9200  1.5397679e-11  7.6782142e-10    0.073452075   0.0051953129 
   96000     9200  1.5535181e-11  5.1101835e-10    0.073452075   0.0053114872 
   98000     9200  1.6580188e-11  3.0019959e-10    0.073452075   0.0047809081 
  100000     9200  1.0876301e-11  4.1810104e-10    0.073452075   0.0047146188 
Loop time of 119.452 on 2 procs for 100000 steps with 9200 atoms, finish time Fri Jun 12 22:28:20 2026


Pair  time (%) = 52.3164 (43.7972)
Neigh time (%) = 0.352504 (0.295101)
Comm  time (%) = 0.78681 (0.658685)
Outpt time (%) = 0.0375555 (0.0314399)
Other time (%) = 65.9584 (55.2176)

Nlocal:    4600 ave 7957 max 1243 min
Histogram: 1 0 0 0 0 0 0 0 0 1
Nghost:    454 ave 499 max 409 min
Histogram: 1 0 0 0 0 0 0 0 0 1
Neighs:    31734 ave 55261 max 8207 min
Histogram: 1 0 0 0 0 0 0 0 0 1

Total # of neighbors = 63468
Ave neighs/atom = 6.8987
Neighbor list builds = 148
Dangerous builds = 0
unfix	ins
variable natoms equal atoms
variable ke_settle equal ke
print	"AUDIT settle: step ${settlesteps}  atoms = ${natoms} (target ${NPART})  KE = ${ke_settle} J"
AUDIT settle: step 100000  atoms = 9200 (target 9200)  KE = 1.08763009381939e-11 J

# stage 2 — rotate shell AND covers about y at 5 rpm; discard the transient.
# Sign convention: positive period -> angular velocity +y; the bed climbs the
# -x side, so the steady surface has dz/dx < 0 (the measurement asserts this).
fix	rot all move/mesh mesh drum rotate origin 0. 0. 0. axis 0. 1. 0. period ${ROTPER}
fix	rot all move/mesh mesh drum rotate origin 0. 0. 0. axis 0. 1. 0. period 12.0
fix	rotc all move/mesh mesh caps rotate origin 0. 0. 0. axis 0. 1. 0. period ${ROTPER}
fix	rotc all move/mesh mesh caps rotate origin 0. 0. 0. axis 0. 1. 0. period 12.0
run	${spinsteps}
run	875000
Setting up run at Fri Jun 12 22:28:20 2026

Memory usage per processor = 19.8724 Mbytes
    Step    Atoms         KinEng            rke          ts[1]          ts[2] 
  100000     9200  1.0876301e-11  4.1810104e-10    0.073452075   0.0047146188 
  102000     9200    0.000132953  7.4366279e-07    0.073452075    0.015407265 
  104000     9200  0.00012812101  3.0109096e-07    0.073452075    0.015461114 
  106000     9200  0.00012757236   2.336212e-07    0.073452075    0.016005271 
  108000     9200  0.00012297786  1.1333989e-07    0.073452075    0.015049875 
  110000     9200  0.00012436106  1.0322105e-07    0.073452075    0.013130552 
  112000     9200  0.00012383512  1.5909604e-07    0.073452075    0.014224165 
  114000     9200  0.00012331773   9.319905e-08    0.073452075    0.013091089 
  116000     9200  0.00012492862  7.6191669e-08    0.073452075    0.013091903 
  118000     9200  0.00012457913  7.2457949e-08    0.073452075    0.013090303 
  120000     9200  0.00012436544  8.2512053e-08    0.073452075    0.013248066 
  122000     9200  0.00012461564   9.025661e-08    0.073452075    0.013090494 
  124000     9200  0.00012395837   8.059432e-08    0.073452075    0.013090827 
  126000     9200  0.00012394076  8.0940782e-08    0.073452075    0.013090671 
  128000     9200  0.00012437192  8.4490893e-08    0.073452075    0.013090665 
  130000     9200  0.00012419236  9.1003346e-08    0.073452075    0.013090783 
  132000     9200  0.00012432205  1.2276151e-07    0.073452075    0.013090877 
  134000     9200  0.00012438307  1.2997191e-07    0.073452075    0.013090891 
  136000     9200  0.00012418416  1.2256612e-07    0.073452075    0.013091286 
  138000     9200   0.0001243645  1.6483907e-07    0.073452075    0.013091128 
  140000     9200  0.00012422659  1.0032837e-07    0.073452075    0.013091053 
  142000     9200  0.00012419702  9.2559454e-08    0.073452075    0.013090736 
  144000     9200  0.00012430254  1.0106251e-07    0.073452075    0.013091727 
  146000     9200  0.00012422378  1.2887327e-07    0.073452075    0.013091529 
  148000     9200  0.00012423385  8.8403874e-08    0.073452075    0.013091805 
  150000     9200  0.00012424084  7.3391118e-08    0.073452075    0.013092072 
  152000     9200  0.00012424249  7.0097034e-08    0.073452075    0.013092229 
  154000     9200  0.00012422688  7.1221745e-08    0.073452075    0.013092609 
  156000     9200  0.00012420061  7.4312993e-08    0.073452075    0.013092737 
  158000     9200  0.00012422483  7.2795868e-08    0.073452075    0.013105537 
  160000     9200  0.00012425166  7.0983486e-08    0.073452075    0.013972091 
  162000     9200  0.00012423245  7.1129312e-08    0.073452075    0.013987767 
  164000     9200  0.00012423245  7.1157764e-08    0.073452075    0.013093605 
  166000     9200  0.00012422446  8.5555925e-08    0.073452075    0.013093813 
  168000     9200  0.00012420967  7.3924342e-08    0.073452075    0.013093928 
  170000     9200   0.0001242906  7.4925907e-08    0.073452075    0.013094112 
  172000     9200  0.00012426664  8.0432696e-08    0.073452075    0.013094327 
  174000     9200  0.00012429776  9.8166669e-08    0.073452075    0.013392594 
  176000     9200  0.00012431217  9.8396539e-08    0.073452075    0.013960348 
  178000     9200  0.00012440533  1.2856658e-07    0.073452075    0.015227984 
  180000     9200  0.00012434434  1.0320017e-07    0.073452075    0.015341112 
  182000     9200  0.00012434049  1.1070438e-07    0.073452075    0.015368191 
  184000     9200  0.00012438456  1.6344837e-07    0.073452075    0.016018113 
  186000     9200  0.00012432882  1.6886142e-07    0.073452075    0.015520985 
  188000     9200  0.00012436314  1.0399988e-07    0.073452075    0.015046732 
  190000     9200  0.00012423014  9.1051579e-08    0.073452075    0.013139045 
  192000     9200  0.00012433887  1.0459525e-07    0.073452075    0.013146265 
  194000     9200  0.00012419459  1.4110943e-07    0.073452075    0.014055019 
  196000     9200   0.0001240967  1.1959887e-07    0.073452075    0.013637235 
  198000     9200  0.00012404733  9.3435298e-08    0.073452075    0.013097436 
  200000     9200  0.00012416243  8.5487104e-08    0.073452075     0.01309824 
  202000     9200  0.00012420212  1.0372278e-07    0.073452075    0.013742698 
  204000     9200  0.00012430886  1.4768771e-07    0.073452075    0.014496063 
  206000     9200  0.00012414386   2.264266e-07    0.073452075    0.015647963 
  208000     9200  0.00012438481  2.3372255e-07    0.073452075    0.015061049 
  210000     9200  0.00012453424  2.6283524e-07    0.073452075    0.016725589 
  212000     9200  0.00012400927  1.6012886e-07    0.073452075      0.0144338 
  214000     9200  0.00012433248   1.488572e-07    0.073452075     0.01402462 
  216000     9200  0.00012417324  1.2377318e-07    0.073452075     0.01383293 
  218000     9200  0.00012392099  1.7183056e-07    0.073452075    0.013827926 
  220000     9200  0.00012418818  1.6965671e-07    0.073452075     0.01419228 
  222000     9200  0.00012443607  2.2817841e-07    0.073452075    0.014547837 
  224000     9200  0.00012449552  2.9546326e-07    0.073452075    0.014142834 
  226000     9200  0.00012432311  2.3884413e-07    0.073452075    0.014340404 
  228000     9200  0.00012516522  4.1240486e-07    0.073452075    0.015811725 
  230000     9200  0.00012540117  5.1088946e-07    0.073452075    0.015962613 
  232000     9200  0.00012519064  6.0284022e-07    0.073452075    0.016115001 
  234000     9200     0.00012585  6.3315791e-07    0.073452075    0.016568781 
  236000     9200  0.00012587644  7.5847496e-07    0.073452075    0.016537146 
  238000     9200  0.00012573505  5.0154805e-07    0.073452075    0.016725345 
  240000     9200  0.00012586442  5.2239988e-07    0.073452075    0.015645031 
  242000     9200  0.00012591083  7.5952241e-07    0.073452075    0.015946682 
  244000     9200  0.00012675624  1.0079971e-06    0.073452075    0.017291435 
  246000     9200  0.00012814771  1.1059676e-06    0.073452075    0.017367288 
  248000     9200    0.000129348  1.1462378e-06    0.073452075    0.019263228 
  250000     9200  0.00012831784  8.9227033e-07    0.073452075     0.01775068 
  252000     9200  0.00012899758  1.3393173e-06    0.073452075    0.016984425 
  254000     9200  0.00013192706  1.6092463e-06    0.073452075    0.018280119 
  256000     9200  0.00012943465  1.4057871e-06    0.073452075    0.017389779 
  258000     9200  0.00013019659  1.6007392e-06    0.073452075    0.016897954 
  260000     9200  0.00012872553  1.6909142e-06    0.073452075    0.017498241 
  262000     9200  0.00012927763  1.6416058e-06    0.073452075    0.017457303 
  264000     9200  0.00012761156  1.5977378e-06    0.073452075    0.018186744 
  266000     9200  0.00012644512  1.8533768e-06    0.073452075    0.018853864 
  268000     9200  0.00012625982  1.6186374e-06    0.073452075     0.01653887 
  270000     9200  0.00012596528  1.4127417e-06    0.073452075    0.017555061 
  272000     9200  0.00012531231  1.4592511e-06    0.073452075    0.016782763 
  274000     9200   0.0001267711  1.5741117e-06    0.073452075    0.018258569 
  276000     9200  0.00012822721  1.9950707e-06    0.073452075    0.017959186 
  278000     9200  0.00012798867  1.6898828e-06    0.073452075    0.017330984 
  280000     9200  0.00012716563  2.0611691e-06    0.073452075    0.017479851 
  282000     9200  0.00013003732  2.3652777e-06    0.073452075    0.018214371 
  284000     9200  0.00012996457  2.0245768e-06    0.073452075    0.017699213 
  286000     9200  0.00013032961  2.1721788e-06    0.073452075    0.017787741 
  288000     9200   0.0001323309  2.5543565e-06    0.073452075    0.018413168 
  290000     9200  0.00013408101  2.8054998e-06    0.073452075    0.017011839 
  292000     9200  0.00013767546  3.4461627e-06    0.073452075    0.017201425 
  294000     9200  0.00013873859   3.714185e-06    0.073452075    0.017804138 
  296000     9200  0.00014328108  3.9620769e-06    0.073452075    0.019333803 
  298000     9200  0.00014445984  4.5941936e-06    0.073452075     0.01767767 
  300000     9200    0.000148344  4.5288345e-06    0.073452075    0.018330657 
  302000     9200   0.0001517078  5.6925271e-06    0.073452075    0.018732896 
  304000     9200   0.0001575395  5.8580769e-06    0.073452075    0.019750166 
  306000     9200  0.00016296894  6.1533184e-06    0.073452075     0.01861372 
  308000     9200   0.0001653976  6.8857973e-06    0.073452075    0.019425705 
  310000     9200  0.00017423322  7.5651141e-06    0.073452075     0.01925044 
  312000     9200  0.00018154829  7.7006717e-06    0.073452075     0.01908887 
  314000     9200  0.00019109826  7.9693028e-06    0.073452075    0.020279928 
  316000     9200  0.00020446285  9.7558051e-06    0.073452075    0.020630408 
  318000     9200  0.00021184935  1.0458269e-05    0.073452075    0.021534692 
  320000     9200  0.00022942056  1.1905714e-05    0.073452075    0.020367146 
  322000     9200  0.00023691598  1.3001352e-05    0.073452075    0.021154316 
  324000     9200  0.00024552463  1.3718413e-05    0.073452075    0.021713759 
  326000     9200  0.00024829137  1.4551714e-05    0.073452075    0.020352509 
  328000     9200  0.00026715776  1.6333619e-05    0.073452075    0.021033483 
  330000     9200  0.00027747512   1.744492e-05    0.073452075    0.019678727 
  332000     9200  0.00029362703  1.8009877e-05    0.073452075    0.019390598 
  334000     9200   0.0003129088  1.8570944e-05    0.073452075    0.020233562 
  336000     9200  0.00031824582  1.9287914e-05    0.073452075    0.019727633 
  338000     9200  0.00032958108   2.063381e-05    0.073452075      0.0199882 
  340000     9200  0.00034962863  2.1369641e-05    0.073452075      0.0192638 
  342000     9200  0.00037554919   2.396192e-05    0.073452075    0.019816763 
  344000     9200   0.0003868712  2.5221115e-05    0.073452075    0.020183201 
  346000     9200  0.00041748351  2.8887728e-05    0.073452075     0.02032119 
  348000     9200  0.00041698596  2.9528684e-05    0.073452075    0.021003396 
  350000     9200  0.00042668419  3.1659674e-05    0.073452075    0.021562882 
  352000     9200  0.00042611612  3.0448293e-05    0.073452075    0.021275544 
  354000     9200  0.00042888369  2.9550841e-05    0.073452075     0.02077797 
  356000     9200  0.00043431203  3.0158561e-05    0.073452075     0.02057678 
  358000     9200  0.00043754014  3.0268105e-05    0.073452075    0.020592435 
  360000     9200  0.00044286491  3.3041662e-05    0.073452075    0.021237688 
  362000     9200  0.00045695262  3.3444143e-05    0.073452075    0.021124001 
  364000     9200  0.00046399024  3.1946705e-05    0.073452075    0.020205349 
  366000     9200  0.00043540974  3.1228387e-05    0.073452075    0.020663626 
  368000     9200  0.00043181516  3.0001476e-05    0.073452075    0.020749978 
  370000     9200  0.00040018473  2.8309089e-05    0.073452075    0.020340478 
  372000     9200  0.00038799262  2.8023248e-05    0.073452075    0.020452885 
  374000     9200  0.00039380236  2.6895916e-05    0.073452075    0.020750575 
  376000     9200  0.00040181869  2.6262996e-05    0.073452075    0.020606108 
  378000     9200  0.00038945331  2.5612485e-05    0.073452075    0.020879699 
  380000     9200  0.00038680188  2.6334743e-05    0.073452075    0.020895408 
  382000     9200  0.00039330429  2.6448377e-05    0.073452075    0.020827985 
  384000     9200   0.0003932134  2.6246217e-05    0.073452075    0.020661732 
  386000     9200  0.00037626649  2.4856568e-05    0.073452075    0.021109885 
  388000     9200  0.00038527623  2.5932796e-05    0.073452075    0.021131805 
  390000     9200  0.00038566564  2.5939064e-05    0.073452075    0.020079821 
  392000     9200  0.00037310532  2.6866368e-05    0.073452075    0.021055002 
  394000     9200  0.00036554541  2.5398163e-05    0.073452075    0.020763366 
  396000     9200  0.00035788563   2.542043e-05    0.073452075     0.02025076 
  398000     9200  0.00037435106  2.5727065e-05    0.073452075    0.020592159 
  400000     9200  0.00037497372  2.5134006e-05    0.073452075    0.021821921 
  402000     9200  0.00038138472  2.5088997e-05    0.073452075    0.020500793 
  404000     9200  0.00038533484  2.6343654e-05    0.073452075    0.020748586 
  406000     9200  0.00039734723  2.5274007e-05    0.073452075    0.020802326 
  408000     9200  0.00039063495  2.6427302e-05    0.073452075    0.020430605 
  410000     9200  0.00038788196  2.5692454e-05    0.073452075    0.020200126 
  412000     9200  0.00039534029  2.5930769e-05    0.073452075    0.020279148 
  414000     9200  0.00039075159  2.5233076e-05    0.073452075     0.02032138 
  416000     9200  0.00039754425  2.6036457e-05    0.073452075     0.02079684 
  418000     9200  0.00039111202  2.6696111e-05    0.073452075    0.020688767 
  420000     9200  0.00036589639  2.5170579e-05    0.073452075    0.020392169 
  422000     9200  0.00034560786  2.5758635e-05    0.073452075    0.020828385 
  424000     9200  0.00034178946  2.3971313e-05    0.073452075    0.020393688 
  426000     9200  0.00032075633  2.3482328e-05    0.073452075    0.020191107 
  428000     9200  0.00031240621  2.2496568e-05    0.073452075    0.020740333 
  430000     9200  0.00030465351  2.1868427e-05    0.073452075    0.020669723 
  432000     9200  0.00029369759  2.1232754e-05    0.073452075     0.02096663 
  434000     9200  0.00030615115  2.2488123e-05    0.073452075     0.02085955 
  436000     9200  0.00030296279  2.2121298e-05    0.073452075    0.020828335 
  438000     9200   0.0003171293  2.3717009e-05    0.073452075    0.021027195 
  440000     9200  0.00032259247  2.4903805e-05    0.073452075    0.019644735 
  442000     9200  0.00033565636  2.5222198e-05    0.073452075    0.019709441 
  444000     9200  0.00034450774  2.4894214e-05    0.073452075    0.020423759 
  446000     9200  0.00036338649   2.629447e-05    0.073452075    0.020455122 
  448000     9200  0.00032760927  2.5333558e-05    0.073452075    0.020141948 
  450000     9200  0.00030618676  2.3905303e-05    0.073452075     0.02028259 
  452000     9200   0.0002984276  2.4756573e-05    0.073452075     0.01999844 
  454000     9200  0.00030405706  2.4150017e-05    0.073452075    0.019861542 
  456000     9200  0.00030515041  2.4824204e-05    0.073452075    0.020457323 
  458000     9200  0.00032238448  2.6576674e-05    0.073452075    0.020640835 
  460000     9200  0.00034356088  2.6522651e-05    0.073452075    0.020912682 
  462000     9200  0.00035304067  2.7226534e-05    0.073452075    0.020040244 
  464000     9200  0.00037751713  2.6816629e-05    0.073452075    0.019822271 
  466000     9200  0.00036426309  2.5942123e-05    0.073452075    0.020192404 
  468000     9200  0.00037603541  2.7808857e-05    0.073452075    0.020407811 
  470000     9200  0.00038423733  2.9802808e-05    0.073452075    0.020304358 
  472000     9200    0.000388934  2.8438334e-05    0.073452075    0.020612242 
  474000     9200  0.00038931586  2.8822777e-05    0.073452075    0.020225542 
  476000     9200  0.00038713906  2.7708707e-05    0.073452075    0.020614196 
  478000     9200  0.00039231043   2.661566e-05    0.073452075    0.021178237 
  480000     9200   0.0003900223  2.7938523e-05    0.073452075     0.02033681 
  482000     9200  0.00040758359  2.8244633e-05    0.073452075    0.020632679 
  484000     9200  0.00040883219  2.9588682e-05    0.073452075    0.020271983 
  486000     9200  0.00043676721   2.979247e-05    0.073452075     0.02122578 
  488000     9200  0.00043614231  3.0194994e-05    0.073452075    0.020779237 
  490000     9200  0.00042052666  2.9932684e-05    0.073452075    0.020591547 
  492000     9200  0.00043041435  3.1112481e-05    0.073452075    0.021451914 
  494000     9200  0.00040140506  3.0588592e-05    0.073452075    0.020817771 
  496000     9200  0.00041980072  3.1569476e-05    0.073452075    0.021593867 
  498000     9200  0.00042553862  3.2004174e-05    0.073452075     0.02060141 
  500000     9200  0.00044703708  3.1954154e-05    0.073452075    0.020977702 
  502000     9200  0.00046637026  3.3247161e-05    0.073452075    0.021826578 
  504000     9200  0.00046399346  3.2450448e-05    0.073452075    0.021559037 
  506000     9200  0.00047044387  3.3089428e-05    0.073452075    0.022087483 
  508000     9200   0.0004335701  3.1070089e-05    0.073452075    0.021465772 
  510000     9200  0.00042517895  2.9495955e-05    0.073452075    0.021353939 
  512000     9200  0.00043007602  3.0533785e-05    0.073452075    0.020926106 
  514000     9200  0.00044270661  3.2930547e-05    0.073452075    0.021852618 
  516000     9200  0.00042643922  3.2172294e-05    0.073452075    0.020726242 
  518000     9200  0.00042813048  3.0766177e-05    0.073452075    0.020342276 
  520000     9200  0.00042486234  3.0955552e-05    0.073452075    0.021307272 
  522000     9200   0.0004438227  3.0843752e-05    0.073452075    0.020372386 
  524000     9200  0.00044030384  3.1026993e-05    0.073452075     0.02117608 
  526000     9200  0.00043597821  3.1540056e-05    0.073452075    0.021158397 
  528000     9200  0.00043791505  3.2750866e-05    0.073452075    0.020497383 
  530000     9200  0.00043606266  3.1333967e-05    0.073452075    0.020868976 
  532000     9200  0.00042055852  3.0772659e-05    0.073452075    0.020506433 
  534000     9200  0.00040203074  3.0716289e-05    0.073452075     0.02026742 
  536000     9200  0.00039530868  2.8154232e-05    0.073452075    0.020338103 
  538000     9200  0.00039758712   2.803428e-05    0.073452075    0.020300576 
  540000     9200  0.00039149523  2.7796975e-05    0.073452075    0.020511944 
  542000     9200  0.00039440869  2.7875584e-05    0.073452075    0.020222314 
  544000     9200   0.0003948257  2.9118626e-05    0.073452075    0.020112817 
  546000     9200  0.00039505667  3.0312658e-05    0.073452075    0.020233271 
  548000     9200   0.0003694065  3.0618954e-05    0.073452075    0.019739436 
  550000     9200  0.00036670376  2.9257136e-05    0.073452075    0.020715709 
  552000     9200  0.00035665593  2.7787381e-05    0.073452075    0.020328477 
  554000     9200  0.00037212401  2.7028133e-05    0.073452075    0.021183923 
  556000     9200  0.00036292395  2.5661195e-05    0.073452075    0.020682948 
  558000     9200  0.00035954789  2.5304424e-05    0.073452075    0.020067796 
  560000     9200  0.00036727253  2.5548505e-05    0.073452075    0.020536508 
  562000     9200  0.00039035623  2.7282529e-05    0.073452075    0.021471762 
  564000     9200  0.00039244747  2.8241568e-05    0.073452075    0.020076678 
  566000     9200  0.00036784944  2.6237936e-05    0.073452075    0.019959654 
  568000     9200  0.00036897186   2.706907e-05    0.073452075    0.019878457 
  570000     9200  0.00036211822   2.720971e-05    0.073452075    0.019856749 
  572000     9200  0.00035269742  2.7217772e-05    0.073452075    0.019898111 
  574000     9200  0.00035458277  2.7167843e-05    0.073452075    0.021234998 
  576000     9200  0.00034620907  2.5933433e-05    0.073452075    0.020421051 
  578000     9200  0.00033092977  2.4834943e-05    0.073452075    0.020430972 
  580000     9200  0.00033274128  2.5168025e-05    0.073452075    0.019861039 
  582000     9200  0.00033008177  2.4876331e-05    0.073452075     0.02121844 
  584000     9200  0.00036010256  2.5952871e-05    0.073452075    0.020460758 
  586000     9200  0.00034482465  2.5932357e-05    0.073452075    0.020208003 
  588000     9200  0.00034707303  2.5800239e-05    0.073452075    0.019977719 
  590000     9200  0.00034328964  2.5620197e-05    0.073452075    0.020157427 
  592000     9200  0.00032470297  2.6024967e-05    0.073452075    0.020256193 
  594000     9200  0.00031914987  2.4812157e-05    0.073452075     0.01976897 
  596000     9200  0.00032205138  2.5714872e-05    0.073452075     0.01997157 
  598000     9200  0.00031321899  2.4115682e-05    0.073452075    0.019721865 
  600000     9200  0.00031463222  2.4165404e-05    0.073452075    0.020283893 
  602000     9200  0.00031864183  2.5101614e-05    0.073452075    0.020051736 
  604000     9200  0.00032624547  2.5737525e-05    0.073452075    0.019920166 
  606000     9200  0.00033609093  2.5716403e-05    0.073452075    0.020082775 
  608000     9200  0.00034103882  2.6103742e-05    0.073452075    0.019999948 
  610000     9200   0.0003500778  2.6711344e-05    0.073452075    0.021036489 
  612000     9200  0.00035634877  2.5458937e-05    0.073452075    0.020557599 
  614000     9200  0.00034810347  2.6043652e-05    0.073452075     0.02077334 
  616000     9200  0.00034579921  2.5148675e-05    0.073452075    0.021175131 
  618000     9200  0.00034177826  2.5480206e-05    0.073452075     0.02150206 
  620000     9200  0.00034762988  2.6528652e-05    0.073452075    0.019939561 
  622000     9200  0.00035229762  2.6858274e-05    0.073452075    0.020587205 
  624000     9200  0.00036416762   2.665291e-05    0.073452075    0.020737262 
  626000     9200  0.00037575846  2.6311904e-05    0.073452075    0.020784593 
  628000     9200  0.00039709408  2.9266634e-05    0.073452075    0.020233091 
  630000     9200  0.00039373077   2.666594e-05    0.073452075    0.020490091 
  632000     9200  0.00040578019  2.7955815e-05    0.073452075    0.020353655 
  634000     9200  0.00041928493  2.8050776e-05    0.073452075    0.020525635 
  636000     9200  0.00041641201  2.8361128e-05    0.073452075    0.020382418 
  638000     9200  0.00041501327  2.9266727e-05    0.073452075    0.020294336 
  640000     9200  0.00044483769   3.002785e-05    0.073452075    0.020800109 
  642000     9200  0.00043771289  2.9979549e-05    0.073452075     0.02143152 
  644000     9200  0.00042440147  2.9890659e-05    0.073452075    0.020958919 
  646000     9200  0.00041878346  2.9957819e-05    0.073452075    0.020391323 
  648000     9200  0.00044038178  2.9991945e-05    0.073452075    0.020456826 
  650000     9200  0.00044631619  3.3374908e-05    0.073452075    0.020425675 
  652000     9200  0.00044259139  3.0957663e-05    0.073452075     0.02062973 
  654000     9200  0.00043776676  3.2455895e-05    0.073452075    0.019957453 
  656000     9200  0.00043282621  3.1185432e-05    0.073452075     0.02036412 
  658000     9200  0.00041882506  3.3020671e-05    0.073452075    0.020252286 
  660000     9200   0.0004027508  3.1887236e-05    0.073452075     0.02124311 
  662000     9200  0.00038567921  2.9658551e-05    0.073452075    0.021200638 
  664000     9200  0.00038666203  2.8786395e-05    0.073452075    0.020623301 
  666000     9200  0.00038892965  2.9091204e-05    0.073452075    0.020819923 
  668000     9200  0.00037732966  2.7611089e-05    0.073452075    0.021548336 
  670000     9200   0.0003775768  2.6457405e-05    0.073452075    0.021082727 
  672000     9200  0.00039734705  2.7668533e-05    0.073452075    0.020341333 
  674000     9200  0.00039553222    2.57526e-05    0.073452075    0.021292938 
  676000     9200  0.00039278576  2.7616811e-05    0.073452075     0.02110748 
  678000     9200  0.00039363174  2.9697271e-05    0.073452075    0.020875449 
  680000     9200  0.00038318341  2.8738892e-05    0.073452075    0.020896527 
  682000     9200  0.00038401193  2.8628993e-05    0.073452075    0.021081109 
  684000     9200  0.00040443301  2.8720292e-05    0.073452075    0.022179946 
  686000     9200   0.0003993918  2.8720458e-05    0.073452075    0.021332404 
  688000     9200    0.000382751   2.950716e-05    0.073452075    0.020695002 
  690000     9200  0.00037314467  2.6618883e-05    0.073452075    0.019886681 
  692000     9200  0.00035517277  2.7271151e-05    0.073452075    0.020545118 
  694000     9200  0.00034997342   2.691643e-05    0.073452075    0.019795144 
  696000     9200  0.00035970901  2.6620483e-05    0.073452075     0.02058934 
  698000     9200  0.00035521715  2.7296561e-05    0.073452075    0.019960836 
  700000     9200  0.00034827355  2.7115044e-05    0.073452075    0.020502602 
  702000     9200  0.00034398696  2.6933978e-05    0.073452075    0.020864421 
  704000     9200  0.00035912503  2.8425434e-05    0.073452075    0.020779952 
  706000     9200  0.00033893311  2.7119478e-05    0.073452075    0.020366131 
  708000     9200  0.00033994684  2.6838145e-05    0.073452075    0.020453512 
  710000     9200  0.00035269229  2.7662193e-05    0.073452075    0.020075972 
  712000     9200  0.00034096435   2.618505e-05    0.073452075    0.020936852 
  714000     9200  0.00033664256  2.6735422e-05    0.073452075    0.020431261 
  716000     9200  0.00033130158  2.8066381e-05    0.073452075    0.020258181 
  718000     9200  0.00033377566  2.7504137e-05    0.073452075    0.019560857 
  720000     9200  0.00032686378  2.5953869e-05    0.073452075    0.019821632 
  722000     9200  0.00033286332   2.501742e-05    0.073452075    0.020111954 
  724000     9200   0.0003101654  2.4397212e-05    0.073452075    0.019679096 
  726000     9200  0.00032057568  2.5290366e-05    0.073452075      0.0199724 
  728000     9200  0.00032032256  2.4299774e-05    0.073452075    0.021045857 
  730000     9200  0.00031681145   2.419326e-05    0.073452075    0.019868977 
  732000     9200  0.00030336024  2.3141687e-05    0.073452075    0.020508235 
  734000     9200  0.00029423391  2.3123062e-05    0.073452075    0.019810492 
  736000     9200  0.00029897934  2.2331841e-05    0.073452075    0.020602082 
  738000     9200  0.00029383277  2.1073086e-05    0.073452075    0.020384343 
  740000     9200  0.00030709929  2.1591014e-05    0.073452075    0.020318883 
  742000     9200  0.00030722568   2.150757e-05    0.073452075    0.019956185 
  744000     9200  0.00031381779  2.2826849e-05    0.073452075    0.019751844 
  746000     9200  0.00031600342  2.2431025e-05    0.073452075    0.020246782 
  748000     9200  0.00034486652  2.4096616e-05    0.073452075    0.020592702 
  750000     9200  0.00036133905   2.577319e-05    0.073452075    0.020276337 
  752000     9200   0.0003723029  2.8334592e-05    0.073452075    0.020286059 
  754000     9200  0.00037847264  3.0963046e-05    0.073452075    0.020385867 
  756000     9200  0.00037808751  3.0059259e-05    0.073452075    0.020524133 
  758000     9200  0.00039490617  3.0328166e-05    0.073452075    0.021548475 
  760000     9200  0.00040517559  3.0472834e-05    0.073452075    0.020359373 
  762000     9200   0.0004221467   3.159068e-05    0.073452075    0.020583615 
  764000     9200  0.00043614842  3.0310339e-05    0.073452075    0.021190986 
  766000     9200  0.00044109365  3.1049561e-05    0.073452075    0.020548643 
  768000     9200  0.00042042103  3.0310798e-05    0.073452075    0.020838562 
  770000     9200  0.00043788244  3.0459231e-05    0.073452075    0.021469853 
  772000     9200   0.0004435298  3.2114304e-05    0.073452075    0.021854604 
  774000     9200  0.00046165184  3.3941413e-05    0.073452075    0.022739054 
  776000     9200   0.0004665387  3.2245232e-05    0.073452075    0.020713897 
  778000     9200  0.00046776906  3.2668217e-05    0.073452075    0.020985073 
  780000     9200  0.00046131783  3.3103693e-05    0.073452075    0.020133048 
  782000     9200  0.00047029528  3.2988156e-05    0.073452075     0.02039601 
  784000     9200  0.00046151865  3.3175243e-05    0.073452075    0.020798807 
  786000     9200  0.00045654509  3.4057632e-05    0.073452075    0.020871123 
  788000     9200  0.00045021242  3.3996937e-05    0.073452075    0.021142216 
  790000     9200  0.00045645756  3.1381981e-05    0.073452075    0.020710237 
  792000     9200  0.00046592006  3.2341728e-05    0.073452075    0.021505734 
  794000     9200  0.00045277668  3.4793684e-05    0.073452075    0.020528356 
  796000     9200  0.00044906176  3.3194734e-05    0.073452075     0.02080552 
  798000     9200  0.00043641806  3.2487497e-05    0.073452075    0.021017972 
  800000     9200  0.00042697707  3.2680593e-05    0.073452075    0.020570438 
  802000     9200  0.00040084401  3.2704605e-05    0.073452075    0.020928244 
  804000     9200  0.00043001767  3.1403047e-05    0.073452075     0.02200515 
  806000     9200  0.00042995013  3.2272126e-05    0.073452075    0.020869017 
  808000     9200  0.00041344032  3.1589365e-05    0.073452075    0.020853931 
  810000     9200  0.00041818104    3.07042e-05    0.073452075    0.020862192 
  812000     9200  0.00042216732  3.0733437e-05    0.073452075    0.020866034 
  814000     9200  0.00042613622   3.047219e-05    0.073452075     0.02188372 
  816000     9200  0.00043567553  3.0500069e-05    0.073452075    0.020099201 
  818000     9200  0.00043686148  3.1245122e-05    0.073452075    0.021333964 
  820000     9200  0.00042042796  3.0867692e-05    0.073452075     0.02068332 
  822000     9200  0.00040263961  3.0711882e-05    0.073452075    0.019920018 
  824000     9200  0.00041070968   3.123084e-05    0.073452075     0.02053876 
  826000     9200  0.00040248402  2.8955012e-05    0.073452075    0.020681282 
  828000     9200   0.0003934738  3.0939343e-05    0.073452075    0.020547585 
  830000     9200  0.00041239337   3.115314e-05    0.073452075    0.020477214 
  832000     9200  0.00043131976  3.0995551e-05    0.073452075    0.020425077 
  834000     9200   0.0004339062  3.1317822e-05    0.073452075    0.020132425 
  836000     9200  0.00043113957   2.996263e-05    0.073452075    0.020158286 
  838000     9200  0.00042186296  3.0645535e-05    0.073452075     0.02100519 
  840000     9200  0.00042375292  3.0205448e-05    0.073452075    0.020874537 
  842000     9200  0.00039907415  2.9972245e-05    0.073452075    0.020681977 
  844000     9200  0.00039666771  2.8670438e-05    0.073452075    0.020275488 
  846000     9200  0.00040442566  2.7045812e-05    0.073452075    0.020841381 
  848000     9200  0.00039413135  2.7670208e-05    0.073452075      0.0208464 
  850000     9200  0.00040661271  2.8055588e-05    0.073452075    0.019796649 
  852000     9200  0.00039824883  2.7927279e-05    0.073452075    0.020831509 
  854000     9200  0.00039937859  2.8884174e-05    0.073452075    0.021393746 
  856000     9200  0.00041141376  2.8999569e-05    0.073452075    0.020714811 
  858000     9200  0.00041178688  3.0125707e-05    0.073452075    0.021638954 
  860000     9200  0.00039089425   2.875435e-05    0.073452075    0.020511925 
  862000     9200  0.00037099852  2.9318705e-05    0.073452075    0.019761467 
  864000     9200  0.00037083552  2.9430591e-05    0.073452075    0.020000247 
  866000     9200  0.00036889994  2.8344082e-05    0.073452075    0.020166752 
  868000     9200  0.00037638389  2.8924781e-05    0.073452075    0.020504223 
  870000     9200  0.00038298413  2.8120883e-05    0.073452075    0.020172793 
  872000     9200  0.00035990248  2.8204208e-05    0.073452075    0.020303082 
  874000     9200  0.00036535481  2.7368735e-05    0.073452075    0.021222742 
  876000     9200  0.00036445523  2.7164555e-05    0.073452075    0.020666377 
  878000     9200  0.00035176853   2.621926e-05    0.073452075    0.020746512 
  880000     9200   0.0003479828   2.826792e-05    0.073452075    0.020777873 
  882000     9200  0.00034160693  2.8446912e-05    0.073452075    0.020035996 
  884000     9200  0.00033275733  2.7540968e-05    0.073452075    0.021066891 
  886000     9200  0.00033917446  2.8508592e-05    0.073452075    0.019906799 
  888000     9200  0.00033328917  2.6324221e-05    0.073452075    0.020015627 
  890000     9200  0.00034140275  2.5442994e-05    0.073452075    0.019615195 
  892000     9200  0.00034476984  2.4970561e-05    0.073452075    0.020479923 
  894000     9200  0.00034030057  2.6154334e-05    0.073452075    0.020563953 
  896000     9200  0.00035343272  2.7725424e-05    0.073452075    0.020948901 
  898000     9200  0.00035320964  2.7293487e-05    0.073452075    0.020506285 
  900000     9200  0.00035461438  2.8542904e-05    0.073452075    0.021024422 
  902000     9200  0.00034479396  2.5719633e-05    0.073452075    0.020443022 
  904000     9200   0.0003480403   2.635957e-05    0.073452075    0.021702976 
  906000     9200  0.00035294705  2.7820674e-05    0.073452075    0.020555687 
  908000     9200  0.00034012078  2.6221455e-05    0.073452075     0.02135624 
  910000     9200  0.00033290418  2.6469764e-05    0.073452075    0.019905103 
  912000     9200  0.00034406025  2.7137774e-05    0.073452075    0.020075306 
  914000     9200  0.00035378236  2.8265868e-05    0.073452075    0.020361637 
  916000     9200  0.00034883866  2.7636287e-05    0.073452075    0.020523201 
  918000     9200  0.00035650866  2.8104407e-05    0.073452075    0.020598005 
  920000     9200   0.0003488574  2.7244574e-05    0.073452075    0.020170181 
  922000     9200  0.00035635325  2.7287884e-05    0.073452075    0.020107424 
  924000     9200    0.000358278  2.8860846e-05    0.073452075    0.020123105 
  926000     9200  0.00036597316  3.0362311e-05    0.073452075    0.020035955 
  928000     9200   0.0003667603  2.8698439e-05    0.073452075    0.020678102 
  930000     9200  0.00039361469  3.0466233e-05    0.073452075    0.020256112 
  932000     9200  0.00040796303  3.1507519e-05    0.073452075    0.021241025 
  934000     9200  0.00039963512   3.009136e-05    0.073452075    0.019962231 
  936000     9200   0.0004232795  3.1464697e-05    0.073452075    0.020653612 
  938000     9200  0.00042185012  3.3238955e-05    0.073452075    0.020549069 
  940000     9200  0.00041659703   3.195143e-05    0.073452075    0.020654917 
  942000     9200  0.00043923933  3.2462776e-05    0.073452075    0.021810907 
  944000     9200   0.0004585173  3.2437988e-05    0.073452075    0.021063667 
  946000     9200  0.00043909765  3.2905293e-05    0.073452075    0.020943788 
  948000     9200  0.00045585795  3.4258808e-05    0.073452075    0.020841385 
  950000     9200  0.00045159959  3.2991739e-05    0.073452075    0.021232882 
  952000     9200  0.00044923433  3.4488359e-05    0.073452075    0.022015708 
  954000     9200  0.00044628149  3.2936913e-05    0.073452075    0.020370315 
  956000     9200  0.00040679144  3.1501717e-05    0.073452075    0.020836474 
  958000     9200  0.00040161013  3.0911921e-05    0.073452075    0.020988207 
  960000     9200  0.00040062799  2.9926719e-05    0.073452075    0.021129139 
  962000     9200  0.00040800084  3.2394439e-05    0.073452075    0.020268703 
  964000     9200  0.00040756619  3.1159793e-05    0.073452075    0.020815026 
  966000     9200  0.00042238987   3.169719e-05    0.073452075    0.020936007 
  968000     9200  0.00042014946  3.1737399e-05    0.073452075    0.020912866 
  970000     9200  0.00042794127  3.0404499e-05    0.073452075    0.021678625 
  972000     9200  0.00040729192  3.1210302e-05    0.073452075    0.020570545 
  974000     9200  0.00040097926  2.9736164e-05    0.073452075    0.021505986 
  975000     9200  0.00041901625  2.9168041e-05    0.073452075    0.021505986 
Loop time of 1038.25 on 2 procs for 875000 steps with 9200 atoms, finish time Fri Jun 12 22:45:38 2026


Pair  time (%) = 512.871 (49.3975)
Neigh time (%) = 5.53438 (0.533047)
Comm  time (%) = 7.06036 (0.680024)
Outpt time (%) = 0.308215 (0.0296859)
Other time (%) = 512.479 (49.3597)

Nlocal:    4600 ave 6482 max 2718 min
Histogram: 1 0 0 0 0 0 0 0 0 1
Nghost:    472 ave 478 max 466 min
Histogram: 1 0 0 0 0 0 0 0 0 1
Neighs:    31947.5 ave 45475 max 18420 min
Histogram: 1 0 0 0 0 0 0 0 0 1

Total # of neighbors = 63895
Ave neighs/atom = 6.94511
Neighbor list builds = 2152
Dangerous builds = 0

# stage 3 — steady-state window: frames every DUMPDT for the multi-frame fit
run	${meassteps}
run	800000
Setting up run at Fri Jun 12 22:45:38 2026

Memory usage per processor = 19.8724 Mbytes
    Step    Atoms         KinEng            rke          ts[1]          ts[2] 
  975000     9200  0.00041901625  2.9168041e-05    0.073452075    0.021505986 
  976000     9200  0.00041399052  2.9777921e-05    0.073452075    0.020509697 
  978000     9200  0.00041472802   3.177308e-05    0.073452075    0.020870971 
  980000     9200  0.00042861663   3.145269e-05    0.073452075    0.020659591 
  982000     9200  0.00043072749  3.0646821e-05    0.073452075    0.021583899 
  984000     9200  0.00042397256  2.9659709e-05    0.073452075    0.020510681 
  986000     9200  0.00043183953  2.8926212e-05    0.073452075    0.020065673 
  988000     9200  0.00042987628  2.9317407e-05    0.073452075    0.020103366 
  990000     9200  0.00043534455  2.9302653e-05    0.073452075    0.020700991 
  992000     9200  0.00044848989  3.0742687e-05    0.073452075    0.020974458 
  994000     9200  0.00044910899   3.117295e-05    0.073452075    0.021232677 
  996000     9200  0.00043880724  2.9387213e-05    0.073452075       0.020746 
  998000     9200  0.00044778868   3.231343e-05    0.073452075    0.020547988 
 1000000     9200  0.00042777915  3.1193403e-05    0.073452075    0.021139827 
 1002000     9200  0.00041688258  3.0734887e-05    0.073452075    0.020303939 
 1004000     9200   0.0004094104  2.9431413e-05    0.073452075    0.020664422 
 1006000     9200   0.0003972767  2.9366782e-05    0.073452075    0.021554698 
 1008000     9200  0.00039421417  2.9428437e-05    0.073452075    0.020919183 
 1010000     9200  0.00038904243  2.9567981e-05    0.073452075    0.020414943 
 1012000     9200  0.00037482573  2.8432665e-05    0.073452075    0.020478608 
 1014000     9200  0.00039391312  2.9152763e-05    0.073452075    0.020823791 
 1016000     9200  0.00039497302  2.9463886e-05    0.073452075    0.020687656 
 1018000     9200  0.00039412354  2.9289517e-05    0.073452075    0.020454553 
 1020000     9200  0.00038312377  2.8466961e-05    0.073452075    0.020268041 
 1022000     9200  0.00038050236  2.9964198e-05    0.073452075     0.02130186 
 1024000     9200  0.00038445236  3.0126594e-05    0.073452075    0.020371778 
 1026000     9200  0.00038503176  3.1159297e-05    0.073452075    0.020429011 
 1028000     9200  0.00036592275  2.8778526e-05    0.073452075    0.020968558 
 1030000     9200  0.00036450079  2.8009435e-05    0.073452075    0.019855504 
 1032000     9200   0.0003507112   2.894053e-05    0.073452075    0.021023036 
 1034000     9200  0.00034295233  2.8191195e-05    0.073452075    0.020971875 
 1036000     9200  0.00032554636  2.7440439e-05    0.073452075    0.020662023 
 1038000     9200  0.00032368853  2.6543327e-05    0.073452075    0.020342464 
 1040000     9200   0.0003096665  2.4274625e-05    0.073452075     0.02020686 
 1042000     9200  0.00029057265  2.3561285e-05    0.073452075     0.01965325 
 1044000     9200  0.00029136597  2.3954739e-05    0.073452075    0.020711767 
 1046000     9200  0.00027381026  2.2218009e-05    0.073452075    0.020494743 
 1048000     9200  0.00027066195  2.2106142e-05    0.073452075    0.020154431 
 1050000     9200  0.00026500358  2.1463259e-05    0.073452075    0.020743761 
 1052000     9200  0.00026530348  2.3176447e-05    0.073452075    0.020128149 
 1054000     9200  0.00026895383  2.3183452e-05    0.073452075    0.019655081 
 1056000     9200  0.00027484928  2.3060002e-05    0.073452075    0.020177255 
 1058000     9200  0.00026863573  2.1090914e-05    0.073452075    0.021344363 
 1060000     9200  0.00025702268  2.1525604e-05    0.073452075    0.020624126 
 1062000     9200  0.00026729758  2.3254214e-05    0.073452075     0.02130809 
 1064000     9200  0.00026897796  2.1686677e-05    0.073452075    0.019855001 
 1066000     9200  0.00026519927  2.0701753e-05    0.073452075    0.019258797 
 1068000     9200  0.00026809709  2.1196177e-05    0.073452075    0.019729505 
 1070000     9200  0.00028037288  2.2418865e-05    0.073452075    0.020063481 
 1072000     9200  0.00028778377   2.362199e-05    0.073452075    0.020499434 
 1074000     9200  0.00029808574  2.3908025e-05    0.073452075    0.020098563 
 1076000     9200  0.00030979509  2.4001088e-05    0.073452075    0.020424062 
 1078000     9200  0.00031342101  2.3949428e-05    0.073452075    0.020222312 
 1080000     9200  0.00032065465  2.6157817e-05    0.073452075    0.019927293 
 1082000     9200  0.00033797749  2.5047844e-05    0.073452075    0.019976008 
 1084000     9200  0.00033178577  2.5663084e-05    0.073452075    0.019976677 
 1086000     9200   0.0003405639  2.5580008e-05    0.073452075    0.020068757 
 1088000     9200  0.00036172355  2.5937969e-05    0.073452075     0.02014197 
 1090000     9200  0.00038842471  2.9031212e-05    0.073452075    0.021009391 
 1092000     9200  0.00038468705  2.8325472e-05    0.073452075    0.020330276 
 1094000     9200  0.00042308841  3.1045166e-05    0.073452075    0.020782796 
 1096000     9200  0.00043109988  3.3112421e-05    0.073452075    0.021010882 
 1098000     9200  0.00046171164  3.2750187e-05    0.073452075    0.020792713 
 1100000     9200   0.0004772602  3.4343997e-05    0.073452075    0.020510814 
 1102000     9200  0.00050376185   3.475021e-05    0.073452075    0.020650341 
 1104000     9200  0.00052839482   3.556828e-05    0.073452075    0.021407932 
 1106000     9200  0.00053115462  3.6700526e-05    0.073452075    0.020406894 
 1108000     9200  0.00054464046  3.7040878e-05    0.073452075    0.021350027 
 1110000     9200   0.0005793474  3.8119826e-05    0.073452075    0.020870558 
 1112000     9200  0.00056735252  3.7774227e-05    0.073452075    0.020753156 
 1114000     9200   0.0005402898  3.6885714e-05    0.073452075    0.020478349 
 1116000     9200  0.00056638082  3.6820891e-05    0.073452075    0.020932617 
 1118000     9200  0.00054884543   3.593922e-05    0.073452075    0.020774461 
 1120000     9200  0.00054677307  3.6610281e-05    0.073452075    0.020715264 
 1122000     9200  0.00053837136  3.6043959e-05    0.073452075    0.021106951 
 1124000     9200  0.00052654958  3.5635465e-05    0.073452075    0.020877524 
 1126000     9200  0.00055092231  3.7495825e-05    0.073452075    0.020580423 
 1128000     9200  0.00053959249  3.4607701e-05    0.073452075    0.020951167 
 1130000     9200  0.00052967703  3.3709665e-05    0.073452075    0.021271277 
 1132000     9200  0.00049127734  3.4676059e-05    0.073452075    0.020073285 
 1134000     9200  0.00047062322  3.4424626e-05    0.073452075    0.020548214 
 1136000     9200  0.00046706688  3.4300174e-05    0.073452075    0.020391103 
 1138000     9200  0.00044667841   3.033979e-05    0.073452075    0.020489124 
 1140000     9200  0.00041592003   2.930085e-05    0.073452075    0.021393704 
 1142000     9200  0.00041440136   2.940038e-05    0.073452075    0.020379194 
 1144000     9200  0.00042447606  2.9420038e-05    0.073452075    0.020315775 
 1146000     9200  0.00040631338  2.9690963e-05    0.073452075     0.02023285 
 1148000     9200  0.00039340759  2.8859084e-05    0.073452075    0.021348731 
 1150000     9200  0.00037752485  2.8269024e-05    0.073452075    0.020148471 
 1152000     9200  0.00037476479  2.8011022e-05    0.073452075    0.020653029 
 1154000     9200  0.00038822213  2.7766401e-05    0.073452075    0.020221134 
 1156000     9200  0.00038212578   2.977498e-05    0.073452075    0.020384982 
 1158000     9200  0.00037133276  2.8254263e-05    0.073452075    0.020730825 
 1160000     9200  0.00036941415  2.7584636e-05    0.073452075    0.020864605 
 1162000     9200  0.00034764738  2.7472426e-05    0.073452075    0.020365877 
 1164000     9200  0.00035157619  2.7353489e-05    0.073452075     0.02071045 
 1166000     9200  0.00034618475  2.7298531e-05    0.073452075    0.020968685 
 1168000     9200  0.00033172373  2.6290399e-05    0.073452075    0.021292346 
 1170000     9200  0.00032193794  2.6490834e-05    0.073452075    0.020399419 
 1172000     9200  0.00033276916  2.8259788e-05    0.073452075    0.021176635 
 1174000     9200  0.00034537981   2.821806e-05    0.073452075    0.020007595 
 1176000     9200  0.00032974084  2.5730933e-05    0.073452075    0.019897879 
 1178000     9200  0.00034636048  2.5578612e-05    0.073452075    0.020304073 
 1180000     9200  0.00035345438  2.7205339e-05    0.073452075     0.02113041 
 1182000     9200  0.00033709513  2.7270494e-05    0.073452075    0.020993279 
 1184000     9200  0.00031826917  2.5410161e-05    0.073452075    0.020093243 
 1186000     9200  0.00031545057  2.6751477e-05    0.073452075    0.020426832 
 1188000     9200  0.00031463163  2.7062268e-05    0.073452075    0.019733145 
 1190000     9200  0.00030869064  2.5758463e-05    0.073452075    0.020899293 
 1192000     9200  0.00030260251  2.5762361e-05    0.073452075    0.020563643 
 1194000     9200  0.00030872719  2.4606662e-05    0.073452075    0.020664855 
 1196000     9200  0.00032503296  2.4497044e-05    0.073452075    0.020802359 
 1198000     9200  0.00033074606  2.3942408e-05    0.073452075    0.021060037 
 1200000     9200   0.0003276372  2.3133125e-05    0.073452075    0.019644169 
 1202000     9200  0.00035111262  2.4476888e-05    0.073452075    0.020873711 
 1204000     9200  0.00035232553  2.5097756e-05    0.073452075    0.020043753 
 1206000     9200  0.00034893972  2.5391281e-05    0.073452075    0.020213087 
 1208000     9200  0.00035147115  2.5388686e-05    0.073452075    0.020576322 
 1210000     9200  0.00035424238  2.6771205e-05    0.073452075     0.02022577 
 1212000     9200  0.00036645043  2.8879273e-05    0.073452075    0.020983031 
 1214000     9200  0.00037297587  2.7309731e-05    0.073452075    0.020417727 
 1216000     9200  0.00037610755  2.6792969e-05    0.073452075    0.021082741 
 1218000     9200   0.0003801341  2.6179418e-05    0.073452075    0.022092043 
 1220000     9200  0.00038378718  2.8559382e-05    0.073452075     0.02165507 
 1222000     9200  0.00039272772  2.8941782e-05    0.073452075    0.021202105 
 1224000     9200  0.00038564041  2.9860577e-05    0.073452075    0.022068277 
 1226000     9200  0.00038377397  3.0933881e-05    0.073452075    0.020438158 
 1228000     9200  0.00039292163  3.0510957e-05    0.073452075    0.020525221 
 1230000     9200  0.00040809234  3.0559765e-05    0.073452075      0.0210341 
 1232000     9200  0.00041772325  3.0801314e-05    0.073452075    0.021058269 
 1234000     9200  0.00043094711  3.1507196e-05    0.073452075    0.020232319 
 1236000     9200  0.00043641958  3.2729079e-05    0.073452075    0.019831541 
 1238000     9200   0.0004424232  3.1750595e-05    0.073452075    0.020562891 
 1240000     9200  0.00045263198  3.1224609e-05    0.073452075    0.019918809 
 1242000     9200  0.00044485197  3.2428794e-05    0.073452075    0.020536724 
 1244000     9200   0.0004594343  3.5420426e-05    0.073452075    0.021275683 
 1246000     9200   0.0004578427  3.4370673e-05    0.073452075     0.02053729 
 1248000     9200  0.00044138966  3.2295315e-05    0.073452075    0.021211752 
 1250000     9200  0.00043442696  3.2425781e-05    0.073452075    0.020654278 
 1252000     9200  0.00044498682  3.2401229e-05    0.073452075    0.020333278 
 1254000     9200  0.00043786124  3.1551447e-05    0.073452075    0.020941839 
 1256000     9200  0.00044069373  3.1936384e-05    0.073452075     0.02050377 
 1258000     9200  0.00044725804  3.1324386e-05    0.073452075    0.021059298 
 1260000     9200   0.0004461875  3.0530136e-05    0.073452075    0.020242753 
 1262000     9200  0.00044516253  3.1232046e-05    0.073452075    0.020059704 
 1264000     9200  0.00043865895  3.1376756e-05    0.073452075     0.02036818 
 1266000     9200  0.00044700311  3.3660686e-05    0.073452075    0.020617028 
 1268000     9200  0.00044588843  3.1305639e-05    0.073452075    0.020832246 
 1270000     9200  0.00040692117  3.0413363e-05    0.073452075     0.02124543 
 1272000     9200  0.00040577349  2.9160908e-05    0.073452075    0.021223806 
 1274000     9200  0.00039831928  2.9096651e-05    0.073452075    0.021116877 
 1276000     9200  0.00038681568  2.9110663e-05    0.073452075    0.020231525 
 1278000     9200  0.00038581577   2.917507e-05    0.073452075    0.021244666 
 1280000     9200  0.00038756604  2.8174397e-05    0.073452075    0.020770314 
 1282000     9200  0.00038145643  2.7171761e-05    0.073452075    0.020925938 
 1284000     9200  0.00038863032  2.8030614e-05    0.073452075    0.021586152 
 1286000     9200  0.00038870147  2.9439367e-05    0.073452075    0.022049983 
 1288000     9200   0.0003659878  2.7870269e-05    0.073452075    0.021678174 
 1290000     9200  0.00035080179  2.6762948e-05    0.073452075    0.019980497 
 1292000     9200  0.00035514842  2.7429772e-05    0.073452075    0.020803065 
 1294000     9200  0.00034059752  2.5354393e-05    0.073452075    0.020413097 
 1296000     9200  0.00033200059  2.4292945e-05    0.073452075    0.020885443 
 1298000     9200  0.00033360981  2.5052253e-05    0.073452075    0.019650979 
 1300000     9200  0.00031699064  2.4189116e-05    0.073452075    0.020126644 
 1302000     9200  0.00031185789  2.3562736e-05    0.073452075    0.020516439 
 1304000     9200  0.00029247861  2.1941843e-05    0.073452075     0.01955035 
 1306000     9200   0.0002758432  2.1573744e-05    0.073452075    0.019968573 
 1308000     9200  0.00027143903  2.0570021e-05    0.073452075      0.0198509 
 1310000     9200  0.00028689201  2.0692865e-05    0.073452075    0.020951248 
 1312000     9200  0.00028306137  2.1375073e-05    0.073452075    0.020627649 
 1314000     9200  0.00029319165  2.1063291e-05    0.073452075    0.020740906 
 1316000     9200  0.00030152053  2.2241568e-05    0.073452075     0.02088676 
 1318000     9200  0.00030958192  2.2321767e-05    0.073452075    0.020787645 
 1320000     9200  0.00031979275  2.2934697e-05    0.073452075    0.020274054 
 1322000     9200  0.00033960786  2.5761104e-05    0.073452075    0.021336826 
 1324000     9200  0.00036431308  2.7401415e-05    0.073452075    0.021533706 
 1326000     9200  0.00039093533  2.9284625e-05    0.073452075    0.021208688 
 1328000     9200  0.00040052216  2.7582258e-05    0.073452075    0.020710327 
 1330000     9200  0.00041034843  2.7569194e-05    0.073452075    0.020293169 
 1332000     9200   0.0004167772  2.7595873e-05    0.073452075    0.020046279 
 1334000     9200  0.00042850586    2.84575e-05    0.073452075    0.020403216 
 1336000     9200  0.00042924953  2.9925739e-05    0.073452075    0.020285115 
 1338000     9200  0.00043677315  3.1942008e-05    0.073452075    0.020788397 
 1340000     9200  0.00043876157  3.1883266e-05    0.073452075    0.020674678 
 1342000     9200  0.00044653657   3.091508e-05    0.073452075    0.020499475 
 1344000     9200  0.00045797531  3.2686989e-05    0.073452075    0.019849068 
 1346000     9200  0.00047061062  3.2229271e-05    0.073452075    0.020183567 
 1348000     9200  0.00048959015  3.3748624e-05    0.073452075    0.020852317 
 1350000     9200  0.00047982263  3.4852781e-05    0.073452075      0.0200799 
 1352000     9200  0.00046829169  3.4541842e-05    0.073452075    0.021101817 
 1354000     9200  0.00043882489  3.3610705e-05    0.073452075    0.021146205 
 1356000     9200  0.00045788405  3.3969391e-05    0.073452075    0.020533739 
 1358000     9200  0.00044969072   3.408011e-05    0.073452075    0.019895334 
 1360000     9200  0.00044591679  3.5980481e-05    0.073452075    0.021154975 
 1362000     9200  0.00042006799  3.4379069e-05    0.073452075    0.020677583 
 1364000     9200   0.0004151823  3.2426263e-05    0.073452075    0.020460835 
 1366000     9200    0.000411121  3.2746222e-05    0.073452075    0.020189416 
 1368000     9200  0.00040882661  3.1713958e-05    0.073452075    0.020340025 
 1370000     9200  0.00040226572  3.2565367e-05    0.073452075    0.020075776 
 1372000     9200  0.00039016673   3.125962e-05    0.073452075    0.020408247 
 1374000     9200  0.00036411485   2.912184e-05    0.073452075    0.021459845 
 1376000     9200  0.00036061326  2.7626681e-05    0.073452075    0.020681332 
 1378000     9200  0.00034658361  2.8160775e-05    0.073452075    0.021674349 
 1380000     9200  0.00033775005  2.5527815e-05    0.073452075    0.021289306 
 1382000     9200  0.00033186611    2.44178e-05    0.073452075    0.020526504 
 1384000     9200  0.00033359631  2.5123969e-05    0.073452075    0.020887983 
 1386000     9200  0.00032252597  2.5765814e-05    0.073452075    0.020505009 
 1388000     9200  0.00032115379  2.5711745e-05    0.073452075    0.020481716 
 1390000     9200  0.00032584947  2.5910754e-05    0.073452075     0.02039818 
 1392000     9200  0.00031342613  2.5870424e-05    0.073452075    0.021570353 
 1394000     9200  0.00031763566  2.4243989e-05    0.073452075    0.020780528 
 1396000     9200  0.00032243624  2.5462477e-05    0.073452075    0.020644309 
 1398000     9200  0.00032035215  2.5969554e-05    0.073452075     0.02088685 
 1400000     9200  0.00031610619  2.6014607e-05    0.073452075    0.020123474 
 1402000     9200  0.00032672415  2.5932093e-05    0.073452075    0.020234232 
 1404000     9200   0.0003382901  2.6970819e-05    0.073452075    0.019967972 
 1406000     9200  0.00033805197  2.7303745e-05    0.073452075    0.020007981 
 1408000     9200  0.00035028775  2.7101588e-05    0.073452075    0.019837606 
 1410000     9200  0.00035631539  2.7273395e-05    0.073452075    0.019767316 
 1412000     9200  0.00036109729  2.6671781e-05    0.073452075     0.02046622 
 1414000     9200  0.00036300779  2.7105939e-05    0.073452075    0.019813953 
 1416000     9200  0.00036693797  2.7209802e-05    0.073452075    0.020213981 
 1418000     9200  0.00039267161  2.9146922e-05    0.073452075    0.020861758 
 1420000     9200  0.00040530398  2.8910567e-05    0.073452075    0.020226303 
 1422000     9200  0.00040471961  2.8912115e-05    0.073452075    0.020856681 
 1424000     9200  0.00041387741   3.055274e-05    0.073452075    0.020314557 
 1426000     9200  0.00044090852  3.3155648e-05    0.073452075    0.020831032 
 1428000     9200  0.00045427586  3.3203627e-05    0.073452075    0.021735718 
 1430000     9200   0.0004693768   3.367873e-05    0.073452075    0.020856051 
 1432000     9200  0.00048545189   3.449373e-05    0.073452075    0.020882986 
 1434000     9200  0.00050063816  3.4238147e-05    0.073452075    0.020574027 
 1436000     9200  0.00052210403  3.6970585e-05    0.073452075    0.021579327 
 1438000     9200  0.00052843027  3.6005766e-05    0.073452075    0.021185321 
 1440000     9200  0.00049892652   3.409948e-05    0.073452075    0.021821477 
 1442000     9200  0.00048703827  3.3623928e-05    0.073452075    0.021493758 
 1444000     9200    0.000481727  3.3040551e-05    0.073452075    0.020538766 
 1446000     9200  0.00047555125  3.2375409e-05    0.073452075    0.021702727 
 1448000     9200  0.00046938859  3.3999856e-05    0.073452075    0.020720313 
 1450000     9200  0.00048069607  3.5238479e-05    0.073452075    0.021090092 
 1452000     9200  0.00048202248  3.6100372e-05    0.073452075    0.021332133 
 1454000     9200  0.00044306643  3.3743646e-05    0.073452075    0.020898507 
 1456000     9200  0.00043095599    3.30951e-05    0.073452075    0.021165685 
 1458000     9200  0.00042197282  3.3480551e-05    0.073452075    0.020840743 
 1460000     9200  0.00039367749  3.1473479e-05    0.073452075     0.02110116 
 1462000     9200  0.00039478911  2.9328278e-05    0.073452075    0.020277513 
 1464000     9200  0.00039561514  3.0326737e-05    0.073452075    0.020797998 
 1466000     9200  0.00040336454  3.0636931e-05    0.073452075    0.020102515 
 1468000     9200  0.00039706136  2.8992728e-05    0.073452075    0.020356881 
 1470000     9200  0.00039067262  2.7837539e-05    0.073452075    0.020832719 
 1472000     9200   0.0003900956  2.9409589e-05    0.073452075    0.020638292 
 1474000     9200  0.00039202267  2.8301475e-05    0.073452075    0.020598942 
 1476000     9200   0.0003857633  3.0388963e-05    0.073452075    0.020734984 
 1478000     9200  0.00037385558  2.9332137e-05    0.073452075    0.021557251 
 1480000     9200  0.00038497835  2.9343709e-05    0.073452075    0.020881266 
 1482000     9200  0.00039873174  2.9891819e-05    0.073452075    0.021058592 
 1484000     9200  0.00041967194  3.0128125e-05    0.073452075    0.021269789 
 1486000     9200  0.00042965018  2.9363837e-05    0.073452075    0.021516999 
 1488000     9200  0.00042125716  2.9733189e-05    0.073452075    0.022033552 
 1490000     9200  0.00041395125   3.039272e-05    0.073452075    0.022765914 
 1492000     9200  0.00040888378  2.9522403e-05    0.073452075    0.023252952 
 1494000     9200  0.00040292257  2.9402953e-05    0.073452075    0.021856113 
 1496000     9200  0.00041717349  3.0128749e-05    0.073452075     0.02272934 
 1498000     9200  0.00039912346  2.9665867e-05    0.073452075    0.020901426 
 1500000     9200  0.00039073928  2.7679083e-05    0.073452075    0.021037866 
 1502000     9200  0.00039375052    2.86013e-05    0.073452075    0.021849214 
 1504000     9200  0.00039669176  2.7847469e-05    0.073452075    0.022762447 
 1506000     9200  0.00041293267  2.9563927e-05    0.073452075    0.021551267 
 1508000     9200  0.00043760519  3.0889203e-05    0.073452075    0.021582268 
 1510000     9200  0.00041910639  2.8790241e-05    0.073452075    0.020658549 
 1512000     9200   0.0003944127  2.9027432e-05    0.073452075    0.020091754 
 1514000     9200  0.00039095885  2.7974806e-05    0.073452075    0.020616973 
 1516000     9200   0.0003762574  2.7357718e-05    0.073452075    0.020105771 
 1518000     9200  0.00037048123  2.7873469e-05    0.073452075    0.020048383 
 1520000     9200  0.00037938439  2.9245662e-05    0.073452075    0.020294618 
 1522000     9200  0.00037725762  2.8527732e-05    0.073452075    0.020101251 
 1524000     9200  0.00037989761   2.854719e-05    0.073452075    0.020206354 
 1526000     9200  0.00038784341  2.6736645e-05    0.073452075    0.020613761 
 1528000     9200  0.00038793591  2.6763846e-05    0.073452075    0.020216765 
 1530000     9200  0.00038029077  2.7984493e-05    0.073452075    0.019997829 
 1532000     9200  0.00038041374  2.7426543e-05    0.073452075    0.020309669 
 1534000     9200  0.00037450079  2.7134135e-05    0.073452075    0.020025587 
 1536000     9200  0.00039218744  2.8839292e-05    0.073452075    0.019996185 
 1538000     9200  0.00039248769  2.7877019e-05    0.073452075    0.020481392 
 1540000     9200  0.00038807637  2.7304491e-05    0.073452075    0.020465003 
 1542000     9200  0.00040131415  2.8007066e-05    0.073452075    0.020145833 
 1544000     9200  0.00041091206  2.8145226e-05    0.073452075    0.021034599 
 1546000     9200  0.00039076377  2.7544741e-05    0.073452075    0.020267179 
 1548000     9200  0.00040341598  2.7001994e-05    0.073452075    0.020932682 
 1550000     9200  0.00039235291  2.9806164e-05    0.073452075     0.02054635 
 1552000     9200  0.00036604178  2.8337193e-05    0.073452075    0.020121982 
 1554000     9200  0.00036591529  2.7191592e-05    0.073452075    0.021232666 
 1556000     9200  0.00035145999  2.7527292e-05    0.073452075    0.020950683 
 1558000     9200  0.00035173437  2.7897931e-05    0.073452075     0.02031012 
 1560000     9200  0.00033839926  2.6078183e-05    0.073452075    0.019986989 
 1562000     9200  0.00032533009  2.4482188e-05    0.073452075    0.020097098 
 1564000     9200  0.00032828444  2.5187684e-05    0.073452075    0.020713514 
 1566000     9200  0.00031377608  2.5131598e-05    0.073452075    0.019564692 
 1568000     9200   0.0003165039  2.5306709e-05    0.073452075    0.019881773 
 1570000     9200  0.00033748212  2.4893138e-05    0.073452075    0.020921915 
 1572000     9200  0.00032585158  2.4664254e-05    0.073452075    0.022054434 
 1574000     9200  0.00032918894  2.6018778e-05    0.073452075     0.02050494 
 1576000     9200  0.00032317953  2.4711666e-05    0.073452075    0.020264325 
 1578000     9200  0.00033378575  2.5246985e-05    0.073452075    0.020463571 
 1580000     9200  0.00033241908    2.55268e-05    0.073452075    0.020430014 
 1582000     9200  0.00035544202  2.7153534e-05    0.073452075    0.020691585 
 1584000     9200  0.00036533358  2.8192128e-05    0.073452075    0.020490799 
 1586000     9200  0.00035808296  2.8667435e-05    0.073452075     0.02042431 
 1588000     9200  0.00036942763  2.7818862e-05    0.073452075    0.021025074 
 1590000     9200  0.00035667307  2.7547114e-05    0.073452075      0.0205039 
 1592000     9200  0.00034580923  2.6036558e-05    0.073452075    0.020398179 
 1594000     9200  0.00032469671  2.5793909e-05    0.073452075     0.02039579 
 1596000     9200   0.0003497601  2.7025171e-05    0.073452075    0.020993369 
 1598000     9200  0.00034529222   2.702285e-05    0.073452075    0.020452991 
 1600000     9200   0.0003565553  2.8830744e-05    0.073452075    0.020515428 
 1602000     9200  0.00036272593  2.9728064e-05    0.073452075    0.020487265 
 1604000     9200  0.00037671052  2.8908575e-05    0.073452075    0.020386122 
 1606000     9200  0.00035980188  2.8211068e-05    0.073452075    0.021091575 
 1608000     9200  0.00035959849  2.8274139e-05    0.073452075    0.020876822 
 1610000     9200  0.00035937942  2.9908657e-05    0.073452075    0.021699871 
 1612000     9200  0.00035724544  2.7826468e-05    0.073452075    0.021320276 
 1614000     9200  0.00035752491  2.8649239e-05    0.073452075     0.02137651 
 1616000     9200  0.00033513193  2.7428367e-05    0.073452075    0.020077659 
 1618000     9200  0.00033515836  2.6558649e-05    0.073452075    0.020020458 
 1620000     9200  0.00033762736  2.6099749e-05    0.073452075    0.020301022 
 1622000     9200   0.0003370061  2.6027884e-05    0.073452075    0.020424646 
 1624000     9200  0.00034867368  2.7688441e-05    0.073452075    0.020676328 
 1626000     9200  0.00035384659  2.6477251e-05    0.073452075     0.02050977 
 1628000     9200   0.0003459667   2.720671e-05    0.073452075    0.020170201 
 1630000     9200  0.00037016062  2.8991656e-05    0.073452075    0.020259382 
 1632000     9200  0.00038521737   2.846449e-05    0.073452075    0.020358051 
 1634000     9200  0.00039368629  2.7914994e-05    0.073452075    0.021280999 
 1636000     9200  0.00039871086  2.7863061e-05    0.073452075    0.021116744 
 1638000     9200  0.00039719953  2.7738176e-05    0.073452075    0.020323499 
 1640000     9200  0.00041639634  2.8377702e-05    0.073452075     0.02067014 
 1642000     9200  0.00042183086  2.6486177e-05    0.073452075    0.020446745 
 1644000     9200  0.00043819644  2.7798437e-05    0.073452075    0.020760089 
 1646000     9200   0.0004633257  2.8858197e-05    0.073452075    0.021714203 
 1648000     9200  0.00046809628   3.097179e-05    0.073452075    0.020960438 
 1650000     9200  0.00049821298  3.3593511e-05    0.073452075    0.021822424 
 1652000     9200  0.00044035587  3.2586825e-05    0.073452075    0.022406698 
 1654000     9200  0.00041442505  2.9846507e-05    0.073452075     0.02185956 
 1656000     9200  0.00038502881  2.8814758e-05    0.073452075    0.019961121 
 1658000     9200  0.00036383799  2.7702297e-05    0.073452075    0.020617829 
 1660000     9200  0.00036253101  2.6122492e-05    0.073452075    0.020117175 
 1662000     9200  0.00036215535  2.7141566e-05    0.073452075    0.020494676 
 1664000     9200  0.00035257241  2.7676596e-05    0.073452075    0.020308364 
 1666000     9200  0.00036485004  2.8371897e-05    0.073452075    0.020429993 
 1668000     9200  0.00036318269  2.8206932e-05    0.073452075    0.020693931 
 1670000     9200  0.00037141755  2.8912844e-05    0.073452075    0.020557204 
 1672000     9200  0.00035937633  2.8449711e-05    0.073452075    0.020870689 
 1674000     9200  0.00037290989  2.7990013e-05    0.073452075    0.020731402 
 1676000     9200  0.00036101588  2.8429491e-05    0.073452075    0.021059359 
 1678000     9200  0.00036875593  2.9166908e-05    0.073452075    0.020814557 
 1680000     9200  0.00037599596  2.8135431e-05    0.073452075    0.020702319 
 1682000     9200  0.00037023176  2.9531278e-05    0.073452075    0.019904379 
 1684000     9200  0.00036786711  2.9384515e-05    0.073452075    0.020692466 
 1686000     9200   0.0003525471  2.6719782e-05    0.073452075    0.021010344 
 1688000     9200  0.00034424781   2.691474e-05    0.073452075    0.020801381 
 1690000     9200  0.00035393168  2.7989999e-05    0.073452075    0.020910631 
 1692000     9200  0.00035011915  2.6155021e-05    0.073452075    0.020168451 
 1694000     9200  0.00033337151  2.6551287e-05    0.073452075    0.020315427 
 1696000     9200   0.0003377766  2.6235056e-05    0.073452075    0.020316604 
 1698000     9200  0.00033147103  2.7449146e-05    0.073452075    0.020576552 
 1700000     9200   0.0003396415   2.819929e-05    0.073452075    0.020222729 
 1702000     9200  0.00033614498  2.6519275e-05    0.073452075    0.020140497 
 1704000     9200  0.00032966123  2.6813003e-05    0.073452075    0.021060927 
 1706000     9200  0.00032865755    2.75904e-05    0.073452075     0.02016749 
 1708000     9200  0.00033607727  2.7090721e-05    0.073452075    0.020139567 
 1710000     9200  0.00032528014  2.6747512e-05    0.073452075    0.020700048 
 1712000     9200  0.00032840807  2.5826568e-05    0.073452075    0.020568816 
 1714000     9200   0.0003397735  2.6426353e-05    0.073452075     0.01976079 
 1716000     9200  0.00035085293  2.6681079e-05    0.073452075    0.020319999 
 1718000     9200  0.00034957993  2.8417967e-05    0.073452075    0.021516964 
 1720000     9200  0.00036441434  2.8582736e-05    0.073452075    0.020321158 
 1722000     9200  0.00037649678  2.9166137e-05    0.073452075    0.020700482 
 1724000     9200  0.00038237378  3.0121162e-05    0.073452075    0.021379549 
 1726000     9200  0.00038998379  3.0938166e-05    0.073452075    0.020765265 
 1728000     9200   0.0003818941  2.8603745e-05    0.073452075     0.02025954 
 1730000     9200  0.00041866756  2.9765315e-05    0.073452075    0.020333111 
 1732000     9200  0.00044458034  3.2279087e-05    0.073452075    0.020185421 
 1734000     9200  0.00045723332  3.4984964e-05    0.073452075    0.020058763 
 1736000     9200  0.00047163387  3.4540097e-05    0.073452075    0.020816751 
 1738000     9200  0.00048524665  3.4118498e-05    0.073452075    0.020981841 
 1740000     9200  0.00048672059  3.1954038e-05    0.073452075    0.020690853 
 1742000     9200  0.00049374074  3.2956028e-05    0.073452075    0.020687499 
 1744000     9200  0.00050073383  3.3866168e-05    0.073452075      0.0212427 
 1746000     9200  0.00050689763   3.582731e-05    0.073452075    0.021153139 
 1748000     9200  0.00050639072  3.4996104e-05    0.073452075    0.020624827 
 1750000     9200  0.00049422727  3.4372159e-05    0.073452075    0.020570007 
 1752000     9200  0.00051905963  3.5563888e-05    0.073452075     0.01997366 
 1754000     9200  0.00050240637   3.590512e-05    0.073452075    0.020444397 
 1756000     9200  0.00047126395  3.3954705e-05    0.073452075     0.02043766 
 1758000     9200  0.00046594192  3.4031025e-05    0.073452075    0.020024469 
 1760000     9200  0.00045010379  3.2675091e-05    0.073452075    0.020730112 
 1762000     9200  0.00047217485   3.329093e-05    0.073452075    0.020952618 
 1764000     9200   0.0004696342  3.2475564e-05    0.073452075    0.020588391 
 1766000     9200  0.00047489375  3.3675211e-05    0.073452075    0.020730361 
 1768000     9200  0.00046307657  3.4394835e-05    0.073452075    0.020389732 
 1770000     9200  0.00046126606   3.256358e-05    0.073452075    0.020398774 
 1772000     9200  0.00045793962  3.3556761e-05    0.073452075    0.020644245 
 1774000     9200  0.00042455699  3.1747286e-05    0.073452075    0.019905513 
 1775000     9200  0.00042327255  3.0203937e-05    0.073452075    0.019905513 
Loop time of 934.246 on 2 procs for 800000 steps with 9200 atoms, finish time Fri Jun 12 23:01:12 2026


Pair  time (%) = 471.381 (50.4558)
Neigh time (%) = 6.3771 (0.682593)
Comm  time (%) = 6.6347 (0.710166)
Outpt time (%) = 0.26812 (0.0286991)
Other time (%) = 449.585 (48.1228)

Nlocal:    4600 ave 6533 max 2667 min
Histogram: 1 0 0 0 0 0 0 0 0 1
Nghost:    476 ave 489 max 463 min
Histogram: 1 0 0 0 0 0 0 0 0 1
Neighs:    32011.5 ave 45850 max 18173 min
Histogram: 1 0 0 0 0 0 0 0 0 1

Total # of neighbors = 64023
Ave neighs/atom = 6.95902
Neighbor list builds = 2461
Dangerous builds = 0
variable ke_meas equal ke
print	"AUDIT measure-end: KE = ${ke_meas} J (continuous rolling -> nonzero, no spikes)"
AUDIT measure-end: KE = 0.000423272554696347 J (continuous rolling -> nonzero, no spikes)

# final state marker (runner/render convention; same content as the last frame)
write_dump all custom post/${TAG}_final.liggghts id type x y z vx vy vz omegax omegay omegaz radius
write_dump all custom post/sens50_final.liggghts id type x y z vx vy vz omegax omegay omegaz radius
