LIGGGHTS (Version LIGGGHTS-PUBLIC 3.8.0, compiled 2026-06-11-14:52:41 by joshuamayo, git commit 3d5c00f20519e6bb6eb6756f51f1ad36564e649d)
# drawdown.in — Parameterized orifice-discharge (drawdown) flow test (Phase-9 probe).
#
# Fill the lifted-cylinder geometry over an annular floor whose orifice is
# blocked by a plug disk; settle; remove the plug; discharge through the
# orifice. Mass flow rate comes from fix massflow/mesh on a counting disk
# below the floor (delete_atoms keeps the shrink-wrapped domain bounded —
# the Phase-5 neighbor-grid lesson). The probe question is DISCRIMINATION
# along the Phase-8 friction valley, so no physical target is required yet.
#
# Inertial orifice flow is a genuinely different regime from the quasi-static
# heap and the slow-rolling drum — the two responses that proved degenerate
# for single spheres (results/phase9-drum/NOTES.md, M4).
#
# Run (from repo root):
#   mpirun -np 2 lmp_auto -in templates/drawdown.in \
#       -var TAG dev -var FRIC 0.4 -var ROLLFRIC 0.12 -var REST 0.5 -log log.dev
#
# Atom types: 1 = particles, 2 = walls (cylinder + floor + plug; matrix as aor.in).

# ---------------------------------------------------------------- variables
variable FRIC       index 0.40          # mu_s particle-particle  [calibration target]
variable FRICPW     index 0.40          # mu_s particle-wall      [calibration target]
variable ROLLFRIC   index 0.12          # mu_r particle-particle, epsd2 [target]
variable ROLLFRICPW index 0.12          # mu_r particle-wall, epsd2     [target]
variable REST       index 0.50          # restitution             [target, weak]
variable SEED       index 49979687      # insertion seed
variable TAG        index dev           # output label
variable NPART      index 4000          # particles inserted (the aor fill)
variable MESH       index templates/meshes/cylinder_r0.040_h0.100.stl
variable FLOORMESH  index templates/meshes/floor_annulus_r0.046_o0.011.stl
variable PLUGMESH   index templates/meshes/plug_disk_r0.0135.stl
variable CATCHMESH  index templates/meshes/catch_disk_r0.030.stl
variable YMOD       index 1.0e7         # softened Young's modulus [Pa]
variable DT         index 8.0e-6        # timestep [s]
variable GRAVZ      index -1.0          # gravity z sign (fault-injection knob)
variable SETTLET    index 0.4           # settle stage [s]
variable DISCHARGE  index 1.4           # discharge stage [s] (~full drain at D_o 22 mm)

# fixed (non-calibrated) material inputs
variable POIS       equal 0.25
variable RHO        equal 1400

variable settlesteps equal floor(v_SETTLET/v_DT+0.5)
variable opensteps   equal floor(0.09/v_DT+0.5)
variable dischsteps  equal floor(v_DISCHARGE/v_DT+0.5)-floor(0.09/v_DT+0.5)
variable dumpevery   equal 25000

# ---------------------------------------------------------------- setup
atom_style	granular
atom_modify	map array
boundary	m m m
newton		off
communicate	single vel yes
units		si

region		reg block -0.14 0.14 -0.14 0.14 -0.05 0.20 units box
create_box	2 reg
Created orthogonal box = (-0.14 -0.14 -0.05) to (0.14 0.14 0.2)
  1 by 2 by 1 MPI processor grid

neighbor	0.002 bin
neigh_modify	delay 0

# ---------------------------------------------------------------- material / contact model
fix 	m1 all property/global youngsModulus peratomtype ${YMOD} ${YMOD}
fix 	m1 all property/global youngsModulus peratomtype 1.0e7 ${YMOD}
fix 	m1 all property/global youngsModulus peratomtype 1.0e7 1.0e7
fix 	m2 all property/global poissonsRatio peratomtype ${POIS} ${POIS}
fix 	m2 all property/global poissonsRatio peratomtype 0.25 ${POIS}
fix 	m2 all property/global poissonsRatio peratomtype 0.25 0.25
fix 	m3 all property/global coefficientRestitution peratomtypepair 2 ${REST} ${REST} ${REST} ${REST}
fix 	m3 all property/global coefficientRestitution peratomtypepair 2 0.7 ${REST} ${REST} ${REST}
fix 	m3 all property/global coefficientRestitution peratomtypepair 2 0.7 0.7 ${REST} ${REST}
fix 	m3 all property/global coefficientRestitution peratomtypepair 2 0.7 0.7 0.7 ${REST}
fix 	m3 all property/global coefficientRestitution peratomtypepair 2 0.7 0.7 0.7 0.7
fix 	m4 all property/global coefficientFriction peratomtypepair 2 ${FRIC} ${FRICPW} ${FRICPW} ${FRICPW}
fix 	m4 all property/global coefficientFriction peratomtypepair 2 0.2652 ${FRICPW} ${FRICPW} ${FRICPW}
fix 	m4 all property/global coefficientFriction peratomtypepair 2 0.2652 0.2652 ${FRICPW} ${FRICPW}
fix 	m4 all property/global coefficientFriction peratomtypepair 2 0.2652 0.2652 0.2652 ${FRICPW}
fix 	m4 all property/global coefficientFriction peratomtypepair 2 0.2652 0.2652 0.2652 0.2652
fix 	m5 all property/global coefficientRollingFriction peratomtypepair 2 ${ROLLFRIC} ${ROLLFRICPW} ${ROLLFRICPW} ${ROLLFRICPW}
fix 	m5 all property/global coefficientRollingFriction peratomtypepair 2 0.233 ${ROLLFRICPW} ${ROLLFRICPW} ${ROLLFRICPW}
fix 	m5 all property/global coefficientRollingFriction peratomtypepair 2 0.233 0.233 ${ROLLFRICPW} ${ROLLFRICPW}
fix 	m5 all property/global coefficientRollingFriction peratomtypepair 2 0.233 0.233 0.233 ${ROLLFRICPW}
fix 	m5 all property/global coefficientRollingFriction peratomtypepair 2 0.233 0.233 0.233 0.233

pair_style gran model hertz tangential history rolling_friction epsd2
WARNING: 
	The contact model you specified is not located in any whitelist.
	Because of this the model will be run in an unoptimized version (increasing runtime by up to 20%).
	In order to optimize this model you have the following options:
		(i)  Run the genAutoExamplesWhitelist.sh script in your LIGGGHTS(R) source folder to automatically parse the input script
		(ii) Add the model combination by hand to your style_contact_model_user.whitelist that can be found in your LIGGGHTS(R) source folder
		(iii) Use the ENABLE_MODEL_* flag when building with cmake.
	If you perform one of the steps above LIGGGHTS(R) needs to be recompiled to generate the optimized code.

 (../contact_models.h:365)
pair_coeff	* *

timestep	${DT}
timestep	8.0e-6

fix		gravi all gravity 9.81 vector 0.0 0.0 ${GRAVZ}
fix		gravi all gravity 9.81 vector 0.0 0.0 -1.0

# cylinder side wall + annular floor + plug: ONE wall fix — LIGGGHTS 3.8
# supports a single wall/gran of style mesh, so the plug cannot get its own
# (first smoke run failed on exactly that). The orifice opens by MOVING the
# plug down out of the flow (fix move/mesh, the aor.in lift pattern) and
# parking it below the counting plane.
fix cyl   all mesh/surface file ${MESH} type 2
fix cyl   all mesh/surface file ../../../../../templates/meshes/cylinder_r0.040_h0.100.stl type 2
fix floor all mesh/surface file ${FLOORMESH} type 2
fix floor all mesh/surface file ../../../../../templates/meshes/floor_annulus_r0.046_o0.011.stl type 2
fix plug  all mesh/surface file ${PLUGMESH} type 2
fix plug  all mesh/surface file ../../../../../templates/meshes/plug_disk_r0.0135.stl type 2
fix statwall all wall/gran model hertz tangential history rolling_friction epsd2 mesh n_meshes 3 meshes cyl floor plug
WARNING: 
	The contact model you specified is not located in any whitelist.
	Because of this the model will be run in an unoptimized version (increasing runtime by up to 20%).
	In order to optimize this model you have the following options:
		(i)  Run the genAutoExamplesWhitelist.sh script in your LIGGGHTS(R) source folder to automatically parse the input script
		(ii) Add the model combination by hand to your style_contact_model_user.whitelist that can be found in your LIGGGHTS(R) source folder
		(iii) Use the ENABLE_MODEL_* flag when building with cmake.
	If you perform one of the steps above LIGGGHTS(R) needs to be recompiled to generate the optimized code.

 (../contact_models.h:365)

# counting plane below the orifice — NOT a wall; massflow counts + deletes
fix catch all mesh/surface file ${CATCHMESH} type 2
fix catch all mesh/surface file ../../../../../templates/meshes/catch_disk_r0.030.stl type 2
fix ms all massflow/mesh mesh catch vec_side 0. 0. -1. count once delete_atoms yes

# ---------------------------------------------------------------- particles (fixed PSD)
fix	pts1 all particletemplate/sphere 15485863 atom_type 1 density constant ${RHO} radius constant 0.0017
fix	pts1 all particletemplate/sphere 15485863 atom_type 1 density constant 1400 radius constant 0.0017
fix	pts2 all particletemplate/sphere 15485867 atom_type 1 density constant ${RHO} radius constant 0.00185
fix	pts2 all particletemplate/sphere 15485867 atom_type 1 density constant 1400 radius constant 0.00185
fix	pts3 all particletemplate/sphere 32452843 atom_type 1 density constant ${RHO} radius constant 0.0020
fix	pts3 all particletemplate/sphere 32452843 atom_type 1 density constant 1400 radius constant 0.0020
fix	pdd1 all particledistribution/discrete 32452867 3 pts1 0.25 pts2 0.50 pts3 0.25

region	bc cylinder z 0. 0. 0.0375 0.004 0.085 units box
fix	ins all insert/pack seed ${SEED} distributiontemplate pdd1 vel constant 0. 0. -0.3 		insert_every once overlapcheck yes all_in yes particles_in_region ${NPART} region bc
fix	ins all insert/pack seed 49979687 distributiontemplate pdd1 vel constant 0. 0. -0.3 		insert_every once overlapcheck yes all_in yes particles_in_region ${NPART} region bc
fix	ins all insert/pack seed 49979687 distributiontemplate pdd1 vel constant 0. 0. -0.3 		insert_every once overlapcheck yes all_in yes particles_in_region 4000 region bc

fix	integr all nve/sphere

# nevery 1000 to match the fine thermo cadence (thermo errors out when a
# referenced fix computes on an incompatible schedule)
fix	ts all check/timestep/gran 1000 0.1 0.1

# ---------------------------------------------------------------- output
# fine-grained thermo (8 ms) is the measurement: f_ms[1] = crossed mass [kg]
compute	rke all erotate/sphere
thermo_style	custom step atoms ke f_ms[1] f_ts[1] f_ts[2]
thermo		1000
thermo_modify	lost ignore norm no
dump	dmp all custom ${dumpevery} post/${TAG}_*.liggghts id type x y z vx vy vz omegax omegay omegaz radius
dump	dmp all custom 25000 post/${TAG}_*.liggghts id type x y z vx vy vz omegax omegay omegaz radius
dump	dmp all custom 25000 post/dd2031d2c9d8_s49979687_*.liggghts id type x y z vx vy vz omegax omegay omegaz radius

# ---------------------------------------------------------------- stages
# stage 1 — fill and settle over the plugged orifice
run	${settlesteps}
run	50000
Setting up run at Fri Jun 12 15:42:23 2026

INFO: Particle insertion ins: inserting every 0 steps
Memory usage per processor = 15.7366 Mbytes
    Step    Atoms         KinEng          ms[1]          ts[1]          ts[2] 
       0        0              0              0              0              0 
INFO: Particle insertion ins: inserted 4000 particle templates (mass 1.456074e-01) at step 1
 - a total of 4000 particle templates (mass 1.456074e-01) inserted so far.
    1000     4000    0.010426758              0    0.073452075    0.020600207 
    2000     4000    0.014209405              0    0.073452075    0.021797315 
    3000     4000    0.017337249              0    0.073452075    0.022460398 
    4000     4000    0.019958786              0    0.073452075    0.022692838 
    5000     4000    0.021348331              0    0.073452075    0.023359482 
    6000     4000    0.020371535              0    0.073452075    0.023892227 
    7000     4000    0.016864174              0    0.073452075    0.024688663 
    8000     4000   0.0096739875              0    0.073452075    0.024961845 
    9000     4000   0.0015009467              0    0.073452075    0.024783633 
   10000     4000  0.00027701639              0    0.073452075    0.021287516 
   11000     4000  0.00010633415              0    0.073452075    0.020043679 
   12000     4000  5.9239369e-05              0    0.073452075     0.01929065 
   13000     4000  3.0985175e-05              0    0.073452075    0.018736127 
   14000     4000  1.9094205e-05              0    0.073452075    0.019513923 
   15000     4000  1.1547091e-05              0    0.073452075    0.018261573 
   16000     4000   5.074541e-06              0    0.073452075    0.016794921 
   17000     4000   4.008624e-06              0    0.073452075    0.017641311 
   18000     4000  3.1799887e-06              0    0.073452075    0.017509327 
   19000     4000  1.6625013e-06              0    0.073452075    0.016125426 
   20000     4000  1.9042282e-06              0    0.073452075      0.0174268 
   21000     4000  7.5414642e-07              0    0.073452075    0.015932549 
   22000     4000  1.6941067e-07              0    0.073452075     0.01360308 
   23000     4000   1.112869e-07              0    0.073452075     0.01233234 
   24000     4000  7.3653841e-08              0    0.073452075    0.012772551 
   25000     4000  1.0033159e-07              0    0.073452075    0.013530581 
   26000     4000  1.3239088e-07              0    0.073452075     0.01453735 
   27000     4000  3.5231204e-08              0    0.073452075    0.012608778 
   28000     4000  2.2472611e-08              0    0.073452075    0.012349358 
   29000     4000  2.8650321e-08              0    0.073452075    0.012334081 
   30000     4000  5.0010661e-08              0    0.073452075    0.012640599 
   31000     4000  1.1259742e-07              0    0.073452075    0.013248406 
   32000     4000  2.6436158e-07              0    0.073452075    0.015384192 
   33000     4000  1.3612491e-07              0    0.073452075    0.015067684 
   34000     4000  7.0604034e-08              0    0.073452075    0.014174942 
   35000     4000  3.6444781e-08              0    0.073452075    0.012887892 
   36000     4000  6.1503979e-08              0    0.073452075    0.013241168 
   37000     4000    7.33779e-08              0    0.073452075    0.013858003 
   38000     4000   2.121357e-07              0    0.073452075    0.015969315 
   39000     4000  2.9233998e-07              0    0.073452075    0.016415811 
   40000     4000  2.5759183e-08              0    0.073452075    0.012239012 
   41000     4000  3.4793327e-08              0    0.073452075    0.013296203 
   42000     4000  7.9816527e-08              0    0.073452075    0.014490855 
   43000     4000  5.7584839e-09              0    0.073452075    0.010892393 
   44000     4000  6.5605023e-10              0    0.073452075   0.0063647054 
   45000     4000  7.4370112e-10              0    0.073452075   0.0078711651 
   46000     4000  9.5667181e-10              0    0.073452075   0.0087855583 
   47000     4000  1.5491822e-09              0    0.073452075   0.0095811118 
   48000     4000  3.1252943e-09              0    0.073452075    0.010354647 
   49000     4000  1.2539279e-09              0    0.073452075    0.008980464 
   50000     4000  4.3288894e-10              0    0.073452075   0.0060627134 
Loop time of 29.2145 on 2 procs for 50000 steps with 4000 atoms, finish time Fri Jun 12 15:42:52 2026


Pair  time (%) = 16.5988 (56.817)
Neigh time (%) = 0.105118 (0.359816)
Comm  time (%) = 0.53855 (1.84343)
Outpt time (%) = 0.0113255 (0.0387667)
Other time (%) = 11.9607 (40.941)

Nlocal:    2000 ave 2003 max 1997 min
Histogram: 1 0 0 0 0 0 0 0 0 1
Nghost:    383 ave 389 max 377 min
Histogram: 1 0 0 0 0 0 0 0 0 1
Neighs:    14132 ave 14151 max 14113 min
Histogram: 1 0 0 0 0 0 0 0 0 1

Total # of neighbors = 28264
Ave neighs/atom = 7.066
Neighbor list builds = 78
Dangerous builds = 0
variable natoms equal atoms
print	"AUDIT settle: atoms = ${natoms} (target ${NPART})"
AUDIT settle: atoms = 4000 (target 4000)

# stage 2 — open the orifice: slide the plug down at 0.5 m/s for 0.09 s
# (parks at z ~ -0.044, below the counting plane), then discharge
fix	mvplug all move/mesh mesh plug linear 0. 0. -0.5
run	${opensteps}
run	11250
Setting up run at Fri Jun 12 15:42:52 2026

Memory usage per processor = 21.1373 Mbytes
    Step    Atoms         KinEng          ms[1]          ts[1]          ts[2] 
   50000     4000  4.3288894e-10              0    0.073452075   0.0060627134 
   51000     4000  3.2303149e-05              0    0.073452075    0.019933693 
   52000     4000  5.5807291e-05              0    0.073452075    0.020435245 
   53000     4000  7.3099996e-05              0    0.073452075    0.020996675 
   54000     4000   0.0001099777              0    0.073452075     0.02137646 
   55000     4000  0.00016422492              0    0.073452075    0.021735603 
   56000     4000  0.00023692969              0    0.073452075    0.022344528 
   57000     4000  0.00033410398              0    0.073452075    0.022930024 
   58000     4000  0.00045964945              0    0.073452075    0.023461236 
   59000     4000  0.00060542523              0    0.073452075    0.023948314 
   60000     3983  0.00056157374  0.00060919147    0.073452075    0.024173267 
   61000     3969  0.00052337066   0.0011714685    0.073452075    0.024156467 
   61250     3965  0.00051165489   0.0012828602    0.073452075    0.024156467 
Loop time of 7.85066 on 2 procs for 11250 steps with 3965 atoms, finish time Fri Jun 12 15:43:00 2026


Pair  time (%) = 4.61082 (58.7316)
Neigh time (%) = 0.0896405 (1.14182)
Comm  time (%) = 0.138063 (1.75862)
Outpt time (%) = 0.0003495 (0.00445186)
Other time (%) = 3.01179 (38.3635)

Nlocal:    1982.5 ave 1983 max 1982 min
Histogram: 1 0 0 0 0 0 0 0 0 1
Nghost:    383 ave 388 max 378 min
Histogram: 1 0 0 0 0 0 0 0 0 1
Neighs:    13649.5 ave 13661 max 13638 min
Histogram: 1 0 0 0 0 0 0 0 0 1

Total # of neighbors = 27299
Ave neighs/atom = 6.88499
Neighbor list builds = 55
Dangerous builds = 0
unfix	mvplug
run	${dischsteps}
run	163750
Setting up run at Fri Jun 12 15:43:00 2026

Memory usage per processor = 21.1372 Mbytes
    Step    Atoms         KinEng          ms[1]          ts[1]          ts[2] 
   61250     3965  0.00051165489   0.0012828602    0.073452075    0.024156467 
   62000     3953  0.00044643001   0.0017025452    0.073452075    0.024165081 
   63000     3946  0.00048976283   0.0020488933    0.073452075     0.02432467 
   64000     3940   0.0005576838   0.0021807772    0.073452075    0.024244262 
   65000     3930  0.00059346799   0.0025452284    0.073452075    0.024163625 
   66000     3924  0.00066016192   0.0028178556    0.073452075    0.024500194 
   67000     3917   0.0007003722    0.003014757    0.073452075     0.02425547 
   68000     3907   0.0007281958   0.0034896757    0.073452075    0.024364103 
   69000     3890  0.00066166657   0.0040177513    0.073452075    0.024313353 
   70000     3880  0.00064855656   0.0043738833    0.073452075    0.024586144 
   71000     3868  0.00064154647   0.0048345524    0.073452075    0.024472163 
   72000     3856  0.00063216862   0.0052375989    0.073452075    0.024471864 
   73000     3848  0.00067623295   0.0055951955    0.073452075    0.024488059 
   74000     3839  0.00070183724   0.0059518677    0.073452075     0.02445044 
   75000     3826  0.00065833319   0.0063842657    0.073452075    0.024463598 
   76000     3814  0.00064210448   0.0067980204    0.073452075    0.024578062 
   77000     3802  0.00064595787   0.0072019912    0.073452075    0.024339285 
   78000     3792  0.00065072951   0.0076172105    0.073452075    0.024666996 
   79000     3783  0.00066454666   0.0079557796    0.073452075    0.024683725 
   80000     3771  0.00064112907   0.0082869538    0.073452075    0.024570072 
   81000     3763  0.00069541313   0.0086157391    0.073452075    0.024584807 
   82000     3753  0.00070206454    0.008981655    0.073452075    0.024516115 
   83000     3741   0.0006780868   0.0093665983    0.073452075    0.024520198 
   84000     3728  0.00065889584   0.0098727172    0.073452075    0.024592065 
   85000     3720  0.00070114048    0.010238633    0.073452075    0.024566548 
   86000     3701  0.00057526375    0.010827332    0.073452075    0.024290485 
   87000     3695  0.00065285461    0.011016839    0.073452075    0.024399455 
   88000     3682   0.0006461746    0.011499465    0.073452075     0.02452229 
   89000     3673   0.0006664416    0.011843424    0.073452075    0.024631691 
   90000     3660  0.00059103767    0.012319807    0.073452075    0.024418214 
   91000     3653  0.00064288522    0.012564547    0.073452075    0.024495191 
   92000     3640  0.00059759593       0.013035    0.073452075    0.024493855 
   93000     3633  0.00061117685    0.013306163    0.073452075    0.024459648 
   94000     3626  0.00064436109    0.013628094    0.073452075    0.024614994 
   95000     3617  0.00065556384    0.013892402    0.073452075    0.024408403 
   96000     3604  0.00061183851    0.014405915    0.073452075    0.024489607 
   97000     3595   0.0006438714    0.014726381    0.073452075    0.024482457 
   98000     3587  0.00069093387    0.015064951    0.073452075    0.024500608 
   99000     3569  0.00056255977    0.015757263    0.073452075     0.02452879 
  100000     3558  0.00053572363    0.016105075    0.073452075    0.024412777 
  101000     3552  0.00059426624    0.016333177    0.073452075    0.024466926 
  102000     3541  0.00054929129    0.016736764    0.073452075    0.024420461 
  103000     3533  0.00056144059    0.017073868    0.073452075    0.024266657 
  104000     3524  0.00057906358    0.017372378    0.073452075    0.024528573 
  105000     3516  0.00060021952    0.017672352    0.073452075     0.02435593 
  106000     3507  0.00062097167    0.017999672    0.073452075    0.024422967 
  107000     3492  0.00057608105    0.018536067    0.073452075    0.024432417 
  108000     3483  0.00060285293    0.018857998    0.073452075    0.024402907 
  109000     3475  0.00062952025     0.01921413    0.073452075    0.024499899 
  110000     3459  0.00052758445    0.019757379    0.073452075    0.024428915 
  111000     3451  0.00052106142    0.020095948    0.073452075    0.024586033 
  112000     3442  0.00053382845    0.020314266    0.073452075    0.024388616 
  113000     3435   0.0005827247    0.020567326    0.073452075    0.024397123 
  114000     3427   0.0006271865    0.020914214    0.073452075    0.024436832 
  115000     3414  0.00060148148    0.021343143    0.073452075    0.024543222 
  116000     3406  0.00064203604    0.021625014    0.073452075    0.024665558 
  117000     3395  0.00064563363    0.022001638    0.073452075    0.024402242 
  118000     3383  0.00064217523    0.022444204    0.073452075    0.024554272 
  119000     3376   0.0006968736    0.022715366    0.073452075    0.024457654 
  120000     3366  0.00068549292    0.023045616    0.073452075    0.024632802 
  121000     3352  0.00064638829    0.023547269    0.073452075    0.024275455 
  122000     3344  0.00068389889    0.023876055    0.073452075     0.02470228 
  123000     3333  0.00067502997    0.024193591    0.073452075     0.02453379 
  124000     3321  0.00065400896    0.024605881    0.073452075    0.024509209 
  125000     3313   0.0006776598    0.024914175    0.073452075    0.024492081 
  126000     3301  0.00066821852    0.025326465    0.073452075    0.024498726 
  127000     3291  0.00068463455    0.025765717    0.073452075    0.024577527 
  128000     3283  0.00073884057    0.026123314    0.073452075    0.024590827 
  129000     3274   0.0007651795     0.02640426    0.073452075    0.024523741 
  130000     3260  0.00074620306    0.026846826    0.073452075    0.024380623 
  131000     3244  0.00071940598    0.027417423    0.073452075    0.024387011 
  132000     3229  0.00068090779    0.027988019    0.073452075    0.024491424 
  133000     3217  0.00066790774    0.028439444    0.073452075    0.024537795 
  134000     3208  0.00070203331    0.028747738    0.073452075    0.024514297 
  135000     3194  0.00068561509    0.029222044    0.073452075    0.024516317 
  136000     3184  0.00069915747    0.029579641    0.073452075    0.024426538 
  137000     3178  0.00074341479     0.02984156    0.073452075    0.024485627 
  138000     3165  0.00069343755    0.030349143    0.073452075    0.024649536 
  139000     3151   0.0006360394     0.03082938    0.073452075    0.024474229 
  140000     3140  0.00061539134    0.031271022    0.073452075    0.024666132 
  141000     3129  0.00058432856    0.031628618    0.073452075    0.024627674 
  142000     3118  0.00054118677    0.032042913    0.073452075    0.024527779 
  143000     3112  0.00056034768    0.032295048    0.073452075    0.024541483 
  144000     3102  0.00056044955    0.032747939    0.073452075    0.024540664 
  145000     3094  0.00056895855    0.032991754    0.073452075    0.024412099 
  146000     3086  0.00059880819    0.033330324    0.073452075    0.024359254 
  147000     3076  0.00059871492    0.033631222    0.073452075    0.024350456 
  148000     3068  0.00060942527    0.033986429    0.073452075    0.024437517 
  149000     3062  0.00068632689    0.034192575    0.073452075    0.024284972 
  150000     3053  0.00074058925    0.034615189    0.073452075    0.024488725 
  151000     3040  0.00069915331    0.035015846    0.073452075    0.024449522 
  152000     3030  0.00070889701    0.035426287    0.073452075    0.024375348 
  153000     3013  0.00064661865     0.03602716    0.073452075     0.02444992 
  154000     3001  0.00062201423    0.036503003    0.073452075    0.024525515 
  155000     2995   0.0006941683    0.036710612    0.073452075    0.024580954 
  156000     2984  0.00067619689    0.037178676    0.073452075    0.024379294 
  157000     2970  0.00063476588    0.037628637    0.073452075    0.024302463 
  158000     2960  0.00062748641    0.038059571    0.073452075    0.024484071 
  159000     2948  0.00059822285    0.038521704    0.073452075    0.024578345 
  160000     2934  0.00053892374     0.03896427    0.073452075    0.024658762 
  161000     2924  0.00050811697    0.039337041    0.073452075     0.02467298 
  162000     2918  0.00055014325      0.0395901    0.073452075    0.024458883 
  163000     2908  0.00054076676    0.039929594    0.073452075    0.024445574 
  164000     2901  0.00057976529    0.040098608    0.073452075    0.024429337 
  165000     2889  0.00053747589    0.040567597    0.073452075    0.024473492 
  166000     2881  0.00053184513    0.040884209    0.073452075    0.024543892 
  167000     2872  0.00053128917    0.041214459    0.073452075    0.024428608 
  168000     2861   0.0004991617    0.041609186    0.073452075    0.024470936 
  169000     2855  0.00053703574    0.041779665    0.073452075    0.024493234 
  170000     2848  0.00056827946    0.042042509    0.073452075     0.02423753 
  171000     2840   0.0005933758    0.042342482    0.073452075    0.024211342 
  172000     2829   0.0005807832    0.042752384    0.073452075    0.024371619 
  173000     2817  0.00054350871    0.043175922    0.073452075    0.024391621 
  174000     2805    0.000506677    0.043616099    0.073452075     0.02427811 
  175000     2795  0.00048167616    0.043973696    0.073452075    0.024396683 
  176000     2785  0.00046129657    0.044366958    0.073452075    0.024558794 
  177000     2779  0.00050026997    0.044574568    0.073452075    0.024313015 
  178000     2770  0.00050777467    0.044864758    0.073452075     0.02438978 
  179000     2763  0.00052756493    0.045145704    0.073452075    0.024428447 
  180000     2755   0.0005385867    0.045529723    0.073452075    0.024536632 
  181000     2749   0.0005934703     0.04567971    0.073452075    0.024370476 
  182000     2739  0.00058168179    0.046091076    0.073452075    0.024406833 
  183000     2728  0.00054817602     0.04647363    0.073452075    0.024348581 
  184000     2716  0.00051326269    0.046905488    0.073452075    0.024293846 
  185000     2709  0.00054631995     0.04722449    0.073452075    0.024553748 
  186000     2698  0.00052605268    0.047535172    0.073452075    0.024316092 
  187000     2689  0.00052157346    0.047910871    0.073452075      0.0244325 
  188000     2681  0.00052603656    0.048209921    0.073452075    0.024362894 
  189000     2673  0.00054549188    0.048491792    0.073452075    0.024586026 
  190000     2664  0.00053120406    0.048885595    0.073452075    0.024497877 
  191000     2653  0.00048409665    0.049277933    0.073452075    0.024307118 
  192000     2647  0.00051392335    0.049511965    0.073452075    0.024535949 
  193000     2635  0.00049263759    0.049890978    0.073452075    0.024292649 
  194000     2630  0.00053928611    0.050086415    0.073452075    0.024295324 
  195000     2620  0.00054017436    0.050425908    0.073452075    0.024287119 
  196000     2611  0.00054226249     0.05090468    0.073452075     0.02442214 
  197000     2597  0.00046401663    0.051297943    0.073452075    0.024363913 
  198000     2590  0.00049005788    0.051505553    0.073452075    0.024285303 
  199000     2582   0.0004976751    0.051794278    0.073452075    0.024572052 
  200000     2574  0.00050049936    0.052132847    0.073452075    0.024349705 
  201000     2565  0.00048880424     0.05244114    0.073452075    0.024698997 
  202000     2554  0.00045404354    0.052844187    0.073452075    0.024395096 
  203000     2545  0.00043889682    0.053188146    0.073452075    0.024329468 
  204000     2538  0.00044096107     0.05344267    0.073452075    0.024156172 
  205000     2531  0.00044525605    0.053722152    0.073452075    0.024183543 
  206000     2524  0.00046705285    0.053995703    0.073452075    0.024272918 
  207000     2514  0.00045036943    0.054325413    0.073452075    0.024399035 
  208000     2504  0.00042063003     0.05468301    0.073452075    0.024450523 
  209000     2499   0.0004553947    0.054871592    0.073452075    0.024422821 
  210000     2489  0.00042794191    0.055229188    0.073452075    0.024223133 
  211000     2483    0.000462198    0.055389884    0.073452075    0.024331611 
  212000     2474  0.00046504972    0.055729377    0.073452075    0.024524454 
  213000     2469  0.00050360216    0.055917959    0.073452075    0.024336513 
  214000     2460  0.00050330092     0.05629073    0.073452075    0.024391809 
  215000     2448  0.00047431178    0.056595482    0.073452075    0.024214832 
  216000     2439  0.00044953933    0.056999068    0.073452075    0.024269649 
  217000     2431  0.00042719407     0.05731861    0.073452075    0.024377772 
  218000     2423  0.00042647347    0.057561886    0.073452075    0.024275105 
  219000     2418  0.00047597657    0.057740684    0.073452075    0.024292624 
  220000     2407  0.00040788479    0.058207824    0.073452075    0.024072532 
  221000     2400  0.00041688848    0.058470667    0.073452075    0.024379862 
  222000     2391   0.0003831037    0.058817555    0.073452075    0.024117835 
  223000     2386  0.00043013388    0.059033484    0.073452075    0.024253992 
  224000     2382  0.00048141864    0.059212282    0.073452075    0.024434821 
  225000     2371  0.00045914762    0.059539603    0.073452075    0.024276856 
Loop time of 90.9329 on 2 procs for 163750 steps with 2371 atoms, finish time Fri Jun 12 15:44:31 2026


Pair  time (%) = 49.3843 (54.3085)
Neigh time (%) = 1.48178 (1.62953)
Comm  time (%) = 1.69983 (1.86932)
Outpt time (%) = 0.02179 (0.0239627)
Other time (%) = 38.3452 (42.1687)

Nlocal:    1185.5 ave 1186 max 1185 min
Histogram: 1 0 0 0 0 0 0 0 0 1
Nghost:    188 ave 189 max 187 min
Histogram: 1 0 0 0 0 0 0 0 0 1
Neighs:    7378 ave 7399 max 7357 min
Histogram: 1 0 0 0 0 0 0 0 0 1

Total # of neighbors = 14756
Ave neighs/atom = 6.22353
Neighbor list builds = 1160
Dangerous builds = 0
variable mout equal f_ms[1]
print	"AUDIT discharge-end: crossed mass = ${mout} kg, atoms left = ${natoms}"
AUDIT discharge-end: crossed mass = 0.0595396031433893 kg, atoms left = 2371

write_dump all custom post/${TAG}_final.liggghts id type x y z vx vy vz omegax omegay omegaz radius
write_dump all custom post/dd2031d2c9d8_s49979687_final.liggghts id type x y z vx vy vz omegax omegay omegaz radius
