LIGGGHTS (Version LIGGGHTS-PUBLIC 3.8.0, compiled 2026-06-11-14:52:41 by joshuamayo, git commit 3d5c00f20519e6bb6eb6756f51f1ad36564e649d)
Created orthogonal box = (-0.14 -0.14 0) to (0.14 0.14 0.2)
  1 by 2 by 1 MPI processor grid
WARNING: 
	The contact model you specified is not located in any whitelist.
	Because of this the model will be run in an unoptimized version (increasing runtime by up to 20%).
	In order to optimize this model you have the following options:
		(i)  Run the genAutoExamplesWhitelist.sh script in your LIGGGHTS(R) source folder to automatically parse the input script
		(ii) Add the model combination by hand to your style_contact_model_user.whitelist that can be found in your LIGGGHTS(R) source folder
		(iii) Use the ENABLE_MODEL_* flag when building with cmake.
	If you perform one of the steps above LIGGGHTS(R) needs to be recompiled to generate the optimized code.

 (../contact_models.h:365)
WARNING: 
	The contact model you specified is not located in any whitelist.
	Because of this the model will be run in an unoptimized version (increasing runtime by up to 20%).
	In order to optimize this model you have the following options:
		(i)  Run the genAutoExamplesWhitelist.sh script in your LIGGGHTS(R) source folder to automatically parse the input script
		(ii) Add the model combination by hand to your style_contact_model_user.whitelist that can be found in your LIGGGHTS(R) source folder
		(iii) Use the ENABLE_MODEL_* flag when building with cmake.
	If you perform one of the steps above LIGGGHTS(R) needs to be recompiled to generate the optimized code.

 (../contact_models.h:365)
WARNING: 
	The contact model you specified is not located in any whitelist.
	Because of this the model will be run in an unoptimized version (increasing runtime by up to 20%).
	In order to optimize this model you have the following options:
		(i)  Run the genAutoExamplesWhitelist.sh script in your LIGGGHTS(R) source folder to automatically parse the input script
		(ii) Add the model combination by hand to your style_contact_model_user.whitelist that can be found in your LIGGGHTS(R) source folder
		(iii) Use the ENABLE_MODEL_* flag when building with cmake.
	If you perform one of the steps above LIGGGHTS(R) needs to be recompiled to generate the optimized code.

 (../contact_models.h:365)
WARNING: 
	The contact model you specified is not located in any whitelist.
	Because of this the model will be run in an unoptimized version (increasing runtime by up to 20%).
	In order to optimize this model you have the following options:
		(i)  Run the genAutoExamplesWhitelist.sh script in your LIGGGHTS(R) source folder to automatically parse the input script
		(ii) Add the model combination by hand to your style_contact_model_user.whitelist that can be found in your LIGGGHTS(R) source folder
		(iii) Use the ENABLE_MODEL_* flag when building with cmake.
	If you perform one of the steps above LIGGGHTS(R) needs to be recompiled to generate the optimized code.

 (../contact_models.h:365)
WARNING: 
	The contact model you specified is not located in any whitelist.
	Because of this the model will be run in an unoptimized version (increasing runtime by up to 20%).
	In order to optimize this model you have the following options:
		(i)  Run the genAutoExamplesWhitelist.sh script in your LIGGGHTS(R) source folder to automatically parse the input script
		(ii) Add the model combination by hand to your style_contact_model_user.whitelist that can be found in your LIGGGHTS(R) source folder
		(iii) Use the ENABLE_MODEL_* flag when building with cmake.
	If you perform one of the steps above LIGGGHTS(R) needs to be recompiled to generate the optimized code.

 (../contact_models.h:365)
WARNING: 
	The contact model you specified is not located in any whitelist.
	Because of this the model will be run in an unoptimized version (increasing runtime by up to 20%).
	In order to optimize this model you have the following options:
		(i)  Run the genAutoExamplesWhitelist.sh script in your LIGGGHTS(R) source folder to automatically parse the input script
		(ii) Add the model combination by hand to your style_contact_model_user.whitelist that can be found in your LIGGGHTS(R) source folder
		(iii) Use the ENABLE_MODEL_* flag when building with cmake.
	If you perform one of the steps above LIGGGHTS(R) needs to be recompiled to generate the optimized code.

 (../contact_models.h:365)

Reading STL file '../../../templates/meshes/cylinder_r0.040_h0.100.stl' (mesh processing step 1/3) 
WARNING: 
	The contact model you specified is not located in any whitelist.
	Because of this the model will be run in an unoptimized version (increasing runtime by up to 20%).
	In order to optimize this model you have the following options:
		(i)  Run the genAutoExamplesWhitelist.sh script in your LIGGGHTS(R) source folder to automatically parse the input script
		(ii) Add the model combination by hand to your style_contact_model_user.whitelist that can be found in your LIGGGHTS(R) source folder
		(iii) Use the ENABLE_MODEL_* flag when building with cmake.
	If you perform one of the steps above LIGGGHTS(R) needs to be recompiled to generate the optimized code.

 (../contact_models.h:365)
Fix particledistribution/discrete (id pdd1): distribution based on mass%:
    pts1: d=3.400000e-03 (max. bounding sphere) mass%=25.000000%
    pts2: d=3.700000e-03 (max. bounding sphere) mass%=50.000000%
    pts3: d=4.000000e-03 (max. bounding sphere) mass%=25.000000%
Fix particledistribution/discrete (id pdd1): distribution based on number%:
    pts1: d=3.400000e-03 (max. bounding sphere) number%=31.585425%
    pts2: d=3.700000e-03 (max. bounding sphere) number%=49.017177%
    pts3: d=4.000000e-03 (max. bounding sphere) number%=19.397399%
Setting up run at Thu Jun 11 21:09:45 2026

Import and parallelization of mesh cyl containing 96 triangle(s) successful
INFO: Resetting random generator for region bc
INFO: Particle insertion ins: inserting every 0 steps
Memory usage per processor = 10.4417 Mbytes
    Step    Atoms         KinEng            rke          ts[1]          ts[2] 
       0        0              0              0              0              0 
insertion: proc 0 at 0 %
insertion: proc 1 at 0 %
insertion: proc 0 at 10 %
insertion: proc 1 at 10 %
insertion: proc 0 at 20 %
insertion: proc 1 at 20 %
insertion: proc 0 at 30 %
insertion: proc 1 at 30 %
insertion: proc 1 at 40 %
insertion: proc 0 at 40 %
insertion: proc 1 at 50 %
insertion: proc 0 at 50 %
insertion: proc 1 at 60 %
insertion: proc 0 at 60 %
insertion: proc 0 at 70 %
insertion: proc 1 at 70 %
insertion: proc 0 at 80 %
insertion: proc 1 at 80 %
insertion: proc 0 at 90 %
insertion: proc 1 at 90 %
insertion: proc 0 at 100 %
insertion: proc 1 at 100 %
INFO: Particle insertion ins: inserted 4000 particle templates (mass 1.456172e-01) at step 1
 - a total of 4000 particle templates (mass 1.456172e-01) inserted so far.
    2000     4000    0.013740312  4.8286637e-05    0.073452075    0.021391448 
    4000     4000    0.019340666  0.00014686924    0.073452075    0.022692838 
    6000     4000    0.019626475  0.00023511468    0.073452075    0.023878849 
    8000     4000     0.00910752  0.00034402756    0.073452075    0.024702644 
   10000     4000  0.00030405741  9.6760209e-05    0.073452075    0.022132627 
   12000     4000  5.1035002e-05  2.5480182e-05    0.073452075    0.018968493 
   14000     4000     1.4386e-05  7.4673112e-06    0.073452075    0.020120569 
   16000     4000  4.6291005e-06  3.1788324e-06    0.073452075    0.017683836 
   18000     4000  2.9739265e-06  1.8400248e-06    0.073452075     0.01682872 
   20000     4000  2.1192352e-06  1.3082756e-06    0.073452075    0.016564805 
   22000     4000  1.1755938e-06  8.6709394e-07    0.073452075    0.016346859 
   24000     4000  8.5430423e-07  6.2503923e-07    0.073452075    0.015339154 
   26000     4000  2.6369943e-07  2.6723951e-07    0.073452075    0.014092484 
   28000     4000  4.5729772e-07  3.3606688e-07    0.073452075    0.015952558 
   30000     4000  1.1057078e-07  1.4413385e-07    0.073452075    0.013593413 
   32000     4000  1.5695873e-07  1.4325302e-07    0.073452075    0.015018147 
   34000     4000  1.3814935e-08  3.4373931e-08    0.073452075    0.011309306 
   36000     4000  4.7707719e-09  1.9649173e-08    0.073452075    0.010049194 
   38000     4000  2.5747846e-09  2.0568761e-08    0.073452075    0.010309767 
   40000     4000   6.378116e-10  1.8545602e-08    0.073452075    0.008087259 
   42000     4000  2.3633823e-10  1.6824781e-08    0.073452075   0.0047368473 
   44000     4000  1.4028925e-10  1.6820413e-08    0.073452075   0.0041937603 
   46000     4000  7.4151486e-11  1.6820884e-08    0.073452075   0.0039713801 
   48000     4000  3.8849832e-11   1.682381e-08    0.073452075   0.0040964973 
   50000     4000   1.261616e-11  1.6823156e-08    0.073452075   0.0042645403 
   50001     4000  1.2529846e-11  1.6823103e-08    0.073452075   0.0042645403 
Loop time of 14.5002 on 2 procs for 50001 steps with 4000 atoms, finish time Thu Jun 11 21:09:59 2026


Pair  time (%) = 10.9124 (75.2573)
Neigh time (%) = 0.085129 (0.58709)
Comm  time (%) = 0.321336 (2.21609)
Outpt time (%) = 0.0398085 (0.274539)
Other time (%) = 3.14145 (21.665)

Nlocal:    2000 ave 2003 max 1997 min
Histogram: 1 0 0 0 0 0 0 0 0 1
Nghost:    386 ave 390 max 382 min
Histogram: 1 0 0 0 0 0 0 0 0 1
Neighs:    14156 ave 14185 max 14127 min
Histogram: 1 0 0 0 0 0 0 0 0 1

Total # of neighbors = 28312
Ave neighs/atom = 7.078
Neighbor list builds = 78
Dangerous builds = 0
AUDIT settle: step 50001  KE = 1.25298462936041e-11 J  (target < 2e-8 J for quasi-static)
Setting up run at Thu Jun 11 21:09:59 2026

Memory usage per processor = 17.4458 Mbytes
    Step    Atoms         KinEng            rke          ts[1]          ts[2] 
   50001     4000  1.2529846e-11  1.6823103e-08    0.073452075   0.0042645403 
   52000     4000  1.8616144e-07  1.5123714e-07    0.073452075    0.011512388 
   54000     4000  1.5258097e-07  1.3638457e-07    0.073452075    0.012851415 
   56000     4000   1.373003e-07  1.5885543e-07    0.073452075    0.012286113 
   58000     4000  9.6241102e-08  1.5431026e-07    0.073452075    0.011304066 
   60000     4000  1.2384739e-07   1.787369e-07    0.073452075    0.013025995 
   62000     4000  3.2597302e-07  1.0045637e-07    0.073452075    0.016409406 
   64000     4000  1.6689158e-07  1.4425525e-07    0.073452075    0.013790096 
   66000     4000  4.7750296e-08  8.2035725e-08    0.073452075    0.012177815 
   68000     4000  3.5387816e-08  6.9617439e-08    0.073452075   0.0098203666 
   70000     4000  8.6708883e-08  9.3000782e-08    0.073452075    0.013016759 
   72000     4000  6.3423819e-08  8.9476896e-08    0.073452075    0.011526712 
   74000     4000  2.1754937e-07  1.6398836e-07    0.073452075    0.013302993 
   76000     4000  8.8664202e-08  1.3948335e-07    0.073452075    0.010930818 
   78000     4000  4.1913066e-07  1.9089709e-07    0.073452075    0.014617458 
   80000     4000  2.1607006e-07   2.096007e-07    0.073452075    0.014242791 
   82000     4000  2.4996947e-07  1.4952028e-07    0.073452075    0.015597896 
   84000     4000  1.7706073e-07  1.0039999e-07    0.073452075    0.013855329 
   86000     4000  3.6046901e-07  1.7508846e-07    0.073452075    0.016147522 
   88000     4000  3.8785035e-07  2.9298702e-07    0.073452075    0.013647832 
   90000     4000  1.2342772e-06  4.5044964e-07    0.073452075    0.016772146 
   92000     4000  1.6648451e-06  5.1572062e-07    0.073452075    0.016420568 
   94000     4000  7.7569384e-07    5.01853e-07    0.073452075    0.015187074 
   96000     4000  5.7121449e-07  4.2945765e-07    0.073452075    0.014596804 
   98000     4000  7.3322021e-07  3.7560852e-07    0.073452075    0.014796651 
  100000     4000  7.5302395e-07  5.0652263e-07    0.073452075    0.014970848 
  102000     4000  8.2950241e-07  5.6319488e-07    0.073452075    0.015140896 
  104000     4000  1.3489672e-06  7.0140631e-07    0.073452075    0.017258793 
  106000     4000   6.977483e-07  5.9065283e-07    0.073452075    0.014562163 
  108000     4000  2.3948076e-06  8.9660844e-07    0.073452075    0.017140518 
  110000     4000  2.8791352e-06   1.088158e-06    0.073452075    0.018131497 
  112000     4000  3.7425125e-06  1.6036998e-06    0.073452075    0.017634986 
  114000     4000  3.3623586e-06  1.5535007e-06    0.073452075    0.015999578 
  116000     4000  4.0973004e-06  1.8134981e-06    0.073452075    0.017469808 
  118000     4000  5.5221438e-06  1.9587131e-06    0.073452075    0.017887316 
  120000     4000  7.5958254e-06  2.6610275e-06    0.073452075    0.018020582 
  122000     4000  6.9651645e-06  2.5402172e-06    0.073452075    0.017892701 
  124000     4000   7.058179e-06  2.7673846e-06    0.073452075    0.017038907 
  126000     4000  8.6730171e-06  3.4400096e-06    0.073452075    0.017991794 
  128000     4000  9.5227867e-06  3.3027351e-06    0.073452075    0.018619995 
  130000     4000  9.1965792e-06  3.0336423e-06    0.073452075    0.018406317 
  132000     4000  1.2342634e-05  3.8354725e-06    0.073452075    0.017686519 
  134000     4000  1.4224795e-05   4.671851e-06    0.073452075     0.01798546 
  136000     4000  2.5782953e-05  7.2937545e-06    0.073452075    0.018278229 
  138000     4000  2.4724669e-05  7.6194022e-06    0.073452075    0.018550592 
  140000     4000  2.3276011e-05   6.552901e-06    0.073452075     0.01923888 
  142000     4000  2.3983266e-05  7.0222909e-06    0.073452075     0.01798439 
  144000     4000  2.1367597e-05  6.8281675e-06    0.073452075    0.017566733 
  146000     4000  2.2843536e-05   6.480036e-06    0.073452075    0.017999924 
  148000     4000  2.6380953e-05  8.2916084e-06    0.073452075    0.018441184 
  150000     4000  3.4402715e-05  9.9412194e-06    0.073452075      0.0185801 
  152000     4000  4.2850465e-05  1.2466119e-05    0.073452075    0.018266233 
  154000     4000  6.0658966e-05  1.4696997e-05    0.073452075    0.018852013 
  156000     4000  7.0291726e-05  1.6496535e-05    0.073452075    0.019525769 
  158000     4000  7.5077517e-05  1.8401319e-05    0.073452075    0.018016131 
  160000     4000  7.3939379e-05  1.8275902e-05    0.073452075    0.018416078 
  162000     4000    8.47738e-05  2.0753862e-05    0.073452075    0.018352242 
  164000     4000  7.0757067e-05  1.8647344e-05    0.073452075    0.018961477 
  166000     4000  7.8951541e-05  2.0464061e-05    0.073452075    0.017830644 
  168000     4000  0.00010562142  2.3368728e-05    0.073452075    0.018125294 
  170000     4000  0.00011719461  2.5764198e-05    0.073452075    0.018097135 
  172000     4000  0.00011248719  2.5402561e-05    0.073452075    0.018143707 
  174000     4000  0.00011706496  2.6534347e-05    0.073452075    0.017925385 
  176000     4000  0.00011554607  2.6296765e-05    0.073452075    0.018136111 
  178000     4000  0.00010526006  2.5250088e-05    0.073452075    0.017567165 
  180000     4000  0.00011869434  2.7231963e-05    0.073452075    0.017875856 
  182000     4000  0.00012748908  2.8585342e-05    0.073452075    0.018643411 
  184000     4000  0.00010450439  2.7985973e-05    0.073452075    0.018431554 
  186000     4000  0.00011378603  2.7192944e-05    0.073452075    0.018217891 
  188000     4000  0.00012664364   2.745369e-05    0.073452075    0.017977398 
  190000     4000   0.0001014054  2.5606673e-05    0.073452075    0.018436885 
  192000     4000  9.8110557e-05  2.5219984e-05    0.073452075    0.017777184 
  194000     4000  9.4757407e-05  2.4095031e-05    0.073452075    0.018011039 
  196000     4000  0.00010981767  2.5283429e-05    0.073452075    0.018858573 
  198000     4000  0.00010547699  2.5634673e-05    0.073452075    0.018797383 
  200000     4000  0.00012361048  2.6176121e-05    0.073452075    0.018186902 
  202000     4000  0.00011869501  2.5294874e-05    0.073452075    0.017894072 
  204000     4000  0.00011407091  2.4651428e-05    0.073452075    0.017859687 
  206000     4000  0.00010927855  2.4119091e-05    0.073452075     0.01782103 
  208000     4000  0.00010725143  2.3715937e-05    0.073452075    0.018398641 
  210000     4000  0.00011404718  2.3823828e-05    0.073452075    0.018012777 
  212000     4000  9.5531368e-05  2.1856651e-05    0.073452075    0.017747658 
  214000     4000  9.4462133e-05  2.1401965e-05    0.073452075    0.017729975 
  216000     4000  9.9794203e-05  2.1232779e-05    0.073452075    0.018088413 
  218000     4000  9.7872126e-05  2.0940228e-05    0.073452075    0.017578141 
  220000     4000  8.8116023e-05  1.9943869e-05    0.073452075    0.017879377 
  222000     4000  9.3177994e-05  2.1122628e-05    0.073452075    0.018399974 
  224000     4000  9.4372259e-05  2.0820958e-05    0.073452075    0.017558167 
  226000     4000  9.2307417e-05  1.9866596e-05    0.073452075    0.018345809 
  228000     4000  8.4816316e-05  1.8131098e-05    0.073452075    0.018900735 
  230000     4000  7.8355406e-05  1.6883263e-05    0.073452075    0.017638117 
  232000     4000  7.6391183e-05  1.5931669e-05    0.073452075    0.018581762 
  234000     4000  7.3965356e-05  1.5130065e-05    0.073452075    0.017869955 
  236000     4000  7.4222989e-05  1.5657431e-05    0.073452075    0.017897492 
  238000     4000  7.5566215e-05  1.5101803e-05    0.073452075    0.018329429 
  240000     4000   7.806752e-05  1.5447681e-05    0.073452075    0.017827635 
  242000     4000  7.6167194e-05  1.4884897e-05    0.073452075    0.018282521 
  244000     4000  7.2072035e-05  1.4242398e-05    0.073452075    0.017938776 
  246000     4000  6.8049483e-05  1.4217351e-05    0.073452075    0.017774765 
  248000     4000  6.0988525e-05  1.4237764e-05    0.073452075    0.017374253 
  250000     4000  5.4526258e-05  1.2607102e-05    0.073452075    0.017020641 
  252000     4000   4.655863e-05  1.1153294e-05    0.073452075    0.017394855 
  254000     4000  4.0086014e-05  9.5909774e-06    0.073452075    0.017546164 
  256000     4000  3.4940873e-05  9.3146392e-06    0.073452075    0.018142869 
  258000     4000  3.0473338e-05  8.3022594e-06    0.073452075    0.018192954 
  260000     4000  2.4816384e-05  7.4481949e-06    0.073452075    0.017900599 
  262000     4000  2.0929265e-05  6.4429093e-06    0.073452075    0.018229982 
  264000     4000  1.5070019e-05  5.2334644e-06    0.073452075    0.017082525 
  266000     4000  1.1199489e-05  3.8942955e-06    0.073452075     0.01745542 
  268000     4000  8.4875679e-06  3.0523728e-06    0.073452075    0.017003683 
  270000     4000   8.279593e-06  3.3725584e-06    0.073452075    0.016875542 
  272000     4000  7.0324529e-06  2.8551054e-06    0.073452075    0.016612764 
  274000     4000  5.9554737e-06  2.6119236e-06    0.073452075    0.016731688 
  276000     4000  6.0760077e-06  2.4222637e-06    0.073452075    0.017142718 
  278000     4000  4.2870922e-06   1.725392e-06    0.073452075     0.01741107 
  280000     4000   3.292777e-06  1.5821477e-06    0.073452075    0.016003373 
  282000     4000  3.5461691e-06  1.4826215e-06    0.073452075    0.017659079 
  284000     4000  2.7210345e-06  1.1822278e-06    0.073452075    0.017138286 
  286000     4000  1.9514666e-06  9.8550684e-07    0.073452075    0.015759419 
  288000     4000  1.8465859e-06  8.8437805e-07    0.073452075    0.015772185 
  290000     4000  1.8979372e-06  8.6898831e-07    0.073452075    0.017382752 
  292000     4000  1.1807587e-06  6.5373438e-07    0.073452075    0.014838385 
  294000     4000  1.1731472e-06  6.4774119e-07    0.073452075    0.015176807 
  296000     4000  6.5688501e-07  3.9288611e-07    0.073452075    0.015221749 
  298000     4000  6.3922737e-07  4.0687589e-07    0.073452075    0.014852318 
  300000     4000  2.6803625e-07  2.6205023e-07    0.073452075    0.014075533 
  302000     4000   3.939512e-07  2.8908336e-07    0.073452075    0.015658815 
  304000     4000  4.4523085e-07   2.291367e-07    0.073452075    0.016275172 
  306000     4000  4.3725335e-07    1.42882e-07    0.073452075    0.017458187 
  308000     4000  5.5718996e-08  6.0664625e-08    0.073452075    0.011680102 
  310000     4000  6.0857218e-08  6.6292433e-08    0.073452075    0.012673777 
  312000     4000  4.6268678e-08   5.301403e-08    0.073452075    0.013072269 
  314000     4000  2.1614163e-08  3.5384489e-08    0.073452075    0.012268143 
  316000     4000  3.8301914e-08  3.4454294e-08    0.073452075    0.012720536 
  318000     4000  1.0097182e-08  1.7631383e-08    0.073452075    0.011317212 
  320000     4000  4.3188561e-09  1.0829895e-08    0.073452075     0.01071059 
  322000     4000  6.7922961e-09  1.4664236e-08    0.073452075    0.011625189 
  324000     4000  2.3151775e-08  3.3689886e-08    0.073452075    0.013148045 
  326000     4000  1.1281952e-08  1.3173924e-08    0.073452075    0.012220772 
  328000     4000  1.1601154e-08  1.3350023e-08    0.073452075    0.012270408 
  330000     4000  6.6439935e-09  8.4861622e-09    0.073452075    0.011575355 
  332000     4000  1.4734376e-09  7.1879651e-09    0.073452075   0.0099182448 
  334000     4000  7.6375135e-12  6.6994624e-09    0.073452075   0.0087010835 
  336000     4000   8.935274e-13  6.6937719e-09    0.073452075   0.0086778737 
  338000     4000  2.4252667e-13  6.6892941e-09    0.073452075   0.0086727044 
  340000     4000  8.4077935e-14  6.6849458e-09    0.073452075   0.0086733936 
  342000     4000  7.6872567e-14  6.6802597e-09    0.073452075   0.0086722193 
  344000     4000  3.1620992e-14  6.6761657e-09    0.073452075   0.0086729961 
  346000     4000  1.4113322e-14  6.6717214e-09    0.073452075    0.008673559 
  348000     4000  1.6368677e-14  6.6671863e-09    0.073452075   0.0086734268 
  350000     4000  8.0997582e-15  6.6630299e-09    0.073452075   0.0086728774 
  352000     4000  4.1141122e-15   6.658359e-09    0.073452075   0.0086720252 
  354000     4000  2.1190066e-15  6.6540406e-09    0.073452075   0.0086715033 
  356000     4000  2.6125209e-15  6.6498707e-09    0.073452075   0.0086721743 
  358000     4000  3.1039976e-15  6.6453232e-09    0.073452075   0.0086729736 
  360000     4000  4.4155574e-15  6.6412488e-09    0.073452075   0.0086734453 
  362000     4000  3.1094425e-15  6.6368888e-09    0.073452075   0.0086733507 
  364000     4000  2.1066111e-15  6.6323629e-09    0.073452075   0.0086727506 
  366000     4000  8.5200654e-16  6.6282725e-09    0.073452075    0.008671818 
  368000     4000  3.0311263e-16  6.6237812e-09    0.073452075   0.0086712591 
  370000     4000  1.0449114e-15  6.6195381e-09    0.073452075   0.0086722413 
  372000     4000   2.495163e-15  6.6155139e-09    0.073452075   0.0086730285 
  374000     4000  3.0724093e-15  6.6110337e-09    0.073452075   0.0086733852 
  376000     4000  2.7793971e-15  6.6069408e-09    0.073452075   0.0086732344 
  378000     4000  1.7258532e-15  6.6026828e-09    0.073452075   0.0086726307 
  380000     4000  3.1818189e-16   6.598207e-09    0.073452075   0.0086716775 
  382000     4000  3.9033977e-16  6.5942364e-09    0.073452075   0.0086714885 
  384000     4000  1.0781989e-15  6.5899231e-09    0.073452075   0.0086723022 
  386000     4000  2.1940246e-15  6.5857295e-09    0.073452075   0.0086730284 
  388000     4000  3.1588694e-15  6.5817883e-09    0.073452075   0.0086733352 
  390000     4000  2.3747957e-15  6.5773531e-09    0.073452075     0.00867313 
  392000     4000  1.3523377e-15  6.5732635e-09    0.073452075   0.0086724864 
  394000     4000  4.5318027e-16  6.5691431e-09    0.073452075    0.008671548 
  396000     4000  1.1185111e-16  6.5647754e-09    0.073452075   0.0086714002 
  398000     4000  1.2938696e-15  6.5609134e-09    0.073452075   0.0086723727 
  400000     4000  2.2650901e-15  6.5567429e-09    0.073452075   0.0086730258 
  402000     4000  2.6897072e-15   6.552558e-09    0.073452075    0.008673263 
  404000     4000  2.4441624e-15  6.5486643e-09    0.073452075   0.0086730328 
  406000     4000  1.0356297e-15  6.5443087e-09    0.073452075   0.0086723575 
  408000     4000  2.4636381e-16   6.540265e-09    0.073452075   0.0086714061 
  410000     4000  4.0564111e-16  6.5363141e-09    0.073452075   0.0086714932 
  412000     4000  1.0795469e-15  6.5320619e-09    0.073452075   0.0086724168 
  414000     4000  2.3677704e-15  6.5282605e-09    0.073452075   0.0086730302 
  416000     4000  2.6511672e-15  6.5241906e-09    0.073452075   0.0086731948 
  418000     4000  1.9256328e-15  6.5200033e-09    0.073452075   0.0086729143 
  420000     4000  1.1109804e-15  6.5161729e-09    0.073452075    0.008672239 
  422000     4000  1.3450902e-16  6.5119486e-09    0.073452075   0.0086712835 
  424000     4000  3.1379715e-16  6.5079822e-09    0.073452075   0.0086715982 
  426000     4000  1.3778834e-15  6.5041863e-09    0.073452075   0.0086724522 
  428000     4000  2.1039706e-15  6.5000199e-09    0.073452075   0.0086730102 
  430000     4000  2.5612648e-15   6.496233e-09    0.073452075   0.0086731384 
  432000     4000  1.8778143e-15   6.492251e-09    0.073452075    0.008672801 
  434000     4000  6.6928941e-16  6.4880971e-09    0.073452075   0.0086721032 
  436000     4000  2.9064564e-16  6.4843636e-09    0.073452075   0.0086714649 
  438000     4000  3.6940047e-16  6.4803019e-09    0.073452075   0.0086716841 
  440000     4000   1.264787e-15  6.4764044e-09    0.073452075      0.0086725 
  442000     4000  2.2901577e-15  6.4727157e-09    0.073452075   0.0086729811 
  444000     4000  2.2205628e-15  6.4686078e-09    0.073452075   0.0086730617 
  446000     4000  1.6870392e-15  6.4648245e-09    0.073452075   0.0086727041 
  448000     4000  7.2751209e-16  6.4609559e-09    0.073452075   0.0086719741 
  450000     4000  9.2180629e-18  6.4568848e-09    0.073452075   0.0086710557 
  452000     4000  5.5588127e-16  6.4532604e-09    0.073452075   0.0086717514 
  454000     4000   1.359802e-15  6.4493511e-09    0.073452075   0.0086725305 
  456000     4000  2.0544497e-15  6.4454883e-09    0.073452075    0.008672966 
  458000     4000  2.2766233e-15  6.4418654e-09    0.073452075    0.008672977 
  460000     4000   1.371284e-15  6.4378229e-09    0.073452075   0.0086725919 
  462000     4000  5.5176779e-16  6.4340703e-09    0.073452075   0.0086718657 
  464000     4000  2.2148209e-16  6.4303483e-09    0.073452075   0.0086714257 
  466000     4000  3.8940551e-16  6.4263859e-09    0.073452075   0.0086718306 
  468000     4000  1.4572352e-15  6.4228458e-09    0.073452075   0.0086725416 
  470000     4000  2.0947945e-15  6.4190529e-09    0.073452075   0.0086729375 
  472000     4000  1.9222917e-15  6.4152016e-09    0.073452075   0.0086729091 
  474000     4000  1.3919953e-15  6.4116375e-09    0.073452075   0.0086724732 
  476000     4000  3.7425264e-16  6.4076978e-09    0.073452075   0.0086717468 
  478000     4000  1.0312586e-16  6.4040106e-09    0.073452075   0.0086712644 
  480000     4000  6.8859872e-16  6.4004419e-09    0.073452075   0.0086719033 
  482000     4000  1.2915909e-15  6.3965779e-09    0.073452075   0.0086725638 
  484000     4000  2.0324993e-15  6.3930803e-09    0.073452075   0.0086728902 
  486000     4000  1.9146711e-15  6.3893793e-09    0.073452075   0.0086728326 
  488000     4000  1.0195422e-15  6.3855515e-09    0.073452075   0.0086723746 
  490000     4000  4.6164664e-16  6.3820679e-09    0.073452075    0.008671623 
  492000     4000  8.8739174e-17  6.3782684e-09    0.073452075   0.0086712179 
  494000     4000  5.7181557e-16   6.374656e-09    0.073452075   0.0086719512 
  496000     4000  1.5574611e-15  6.3712123e-09    0.073452075   0.0086725821 
  498000     4000  1.8008817e-15  6.3674213e-09    0.073452075   0.0086728549 
  500000     4000  1.7292306e-15  6.3639407e-09    0.073452075   0.0086727392 
  502000     4000  1.0484358e-15  6.3603382e-09    0.073452075   0.0086722725 
  504000     4000  1.7032621e-16  6.3565721e-09    0.073452075   0.0086715215 
  506000     4000  2.5715674e-16  6.3531898e-09    0.073452075   0.0086714206 
  508000     4000  6.4417598e-16  6.3495396e-09    0.073452075   0.0086720032 
  510000     4000  1.3550566e-15  6.3459824e-09    0.073452075   0.0086725763 
  512000     4000  1.9640028e-15  6.3426239e-09    0.073452075   0.0086728196 
  514000     4000  1.4658953e-15  6.3388968e-09    0.073452075   0.0086726596 
  516000     4000  8.4596979e-16   6.335441e-09    0.073452075    0.008672156 
  518000     4000  3.0486491e-16  6.3319634e-09    0.073452075   0.0086714214 
  520000     4000  6.3001207e-17  6.3282922e-09    0.073452075   0.0086712957 
  522000     4000  8.1523857e-16  6.3250053e-09    0.073452075   0.0086720605 
  524000     4000  1.4122216e-15  6.3214832e-09    0.073452075   0.0086725737 
  526000     4000  1.6499599e-15  6.3179556e-09    0.073452075   0.0086727623 
  528000     4000  1.5520361e-15  6.3146613e-09    0.073452075   0.0086725846 
  530000     4000   6.448996e-16  6.3110183e-09    0.073452075   0.0086720549 
  532000     4000   1.663853e-16  6.3076152e-09    0.073452075   0.0086713089 
  534000     4000  2.8705386e-16  6.3042803e-09    0.073452075   0.0086713995 
  536000     4000  6.5450491e-16  6.3007105e-09    0.073452075   0.0086720948 
  538000     4000  1.4905872e-15  6.2974888e-09    0.073452075   0.0086725786 
  540000     4000  1.6532338e-15  6.2940676e-09    0.073452075   0.0086727087 
  542000     4000  1.1895387e-15  6.2905648e-09    0.073452075   0.0086724907 
  544000     4000  7.2954463e-16  6.2873418e-09    0.073452075    0.008671963 
  546000     4000  9.1984244e-17  6.2838163e-09    0.073452075   0.0086712128 
  548000     4000  2.0610501e-16  6.2804855e-09    0.073452075    0.008671452 
  550000     4000  8.8214426e-16  6.2772833e-09    0.073452075   0.0086721221 
  552000     4000  1.2943353e-15  6.2737986e-09    0.073452075   0.0086725626 
  554000     4000  1.6085189e-15  6.2706124e-09    0.073452075   0.0086726657 
  556000     4000   1.185906e-15  6.2672846e-09    0.073452075   0.0086724015 
  558000     4000  4.1648923e-16  6.2638294e-09    0.073452075   0.0086718556 
  560000     4000  2.1751665e-16  6.2606969e-09    0.073452075   0.0086713996 
  562000     4000  2.3997592e-16  6.2573092e-09    0.073452075   0.0086715196 
  564000     4000  7.8556958e-16  6.2540456e-09    0.073452075   0.0086721609 
  566000     4000   1.446617e-15  6.2509454e-09    0.073452075   0.0086725392 
  568000     4000  1.3721229e-15  6.2475303e-09    0.073452075   0.0086726053 
  570000     4000  1.0673398e-15   6.244372e-09    0.073452075   0.0086723267 
  572000     4000  4.8216901e-16  6.2411527e-09    0.073452075   0.0086717539 
  574000     4000   5.773215e-18   6.237777e-09    0.073452075   0.0086710341 
  576000     4000  3.7509658e-16  6.2347415e-09    0.073452075   0.0086715716 
  578000     4000  8.5269454e-16   6.231486e-09    0.073452075   0.0086721853 
  580000     4000  1.2709086e-15  6.2282693e-09    0.073452075   0.0086725286 
  582000     4000  1.4410379e-15  6.2252442e-09    0.073452075   0.0086725381 
  584000     4000  8.5343392e-16  6.2219039e-09    0.073452075   0.0086722385 
  586000     4000    3.62491e-16  6.2187898e-09    0.073452075   0.0086716699 
  588000     4000  1.7021364e-16  6.2156986e-09    0.073452075   0.0086713653 
  590000     4000   2.372059e-16  6.2124198e-09    0.073452075   0.0086716345 
  592000     4000  9.2522876e-16  6.2094648e-09    0.073452075    0.008672193 
  594000     4000  1.3111898e-15  6.2063196e-09    0.073452075   0.0086725066 
  596000     4000   1.189936e-15  6.2031363e-09    0.073452075   0.0086724859 
  598000     4000  8.9692021e-16  6.2001805e-09    0.073452075   0.0086721445 
  600000     4000  2.4123952e-16  6.1969393e-09    0.073452075   0.0086715764 
  602000     4000  7.8212008e-17  6.1938908e-09    0.073452075   0.0086712238 
  604000     4000  4.5727161e-16  6.1909311e-09    0.073452075   0.0086716924 
  606000     4000  7.9307998e-16  6.1877443e-09    0.073452075   0.0086722113 
  608000     4000  1.2772839e-15  6.1848431e-09    0.073452075   0.0086724686 
  610000     4000  1.2064461e-15  6.1817928e-09    0.073452075   0.0086724263 
  612000     4000  6.3295471e-16  6.1786511e-09    0.073452075   0.0086720679 
  614000     4000  3.2147923e-16  6.1757766e-09    0.073452075   0.0086714782 
  616000     4000  6.5187283e-17  6.1726583e-09    0.073452075   0.0086711833 
  618000     4000   3.601765e-16  6.1696814e-09    0.073452075   0.0086717292 
  620000     4000  9.9328028e-16  6.1668348e-09    0.073452075   0.0086722266 
  622000     4000   1.110012e-15  6.1637258e-09    0.073452075   0.0086724416 
  624000     4000  1.0890804e-15  6.1608619e-09    0.073452075   0.0086723521 
  626000     4000  6.7635325e-16  6.1579105e-09    0.073452075   0.0086719883 
  628000     4000  1.0712693e-16  6.1548351e-09    0.073452075   0.0086713993 
  630000     4000  1.9089959e-16  6.1520534e-09    0.073452075   0.0086713608 
  632000     4000  4.0792949e-16  6.1490642e-09    0.073452075   0.0086717702 
  634000     4000  8.3924449e-16  6.1461472e-09    0.073452075   0.0086722213 
  636000     4000  1.2458248e-15  6.1433879e-09    0.073452075   0.0086724148 
  638000     4000  9.0792719e-16   6.140352e-09    0.073452075   0.0086722901 
  640000     4000  5.4205272e-16  6.1375297e-09    0.073452075   0.0086718959 
  642000     4000   2.183007e-16  6.1346927e-09    0.073452075   0.0086713324 
  644000     4000  3.7833514e-17  6.1317054e-09    0.073452075   0.0086712148 
  646000     4000  5.3025162e-16   6.129012e-09    0.073452075   0.0086718164 
  648000     4000  8.8406406e-16  6.1261394e-09    0.073452075   0.0086722194 
  650000     4000  1.0202673e-15  6.1232674e-09    0.073452075   0.0086723692 
  652000     4000  9.9323644e-16  6.1205812e-09    0.073452075   0.0086722322 
  654000     4000  4.0519283e-16  6.1176319e-09    0.073452075   0.0086718168 
  656000     4000  1.1840737e-16  6.1148681e-09    0.073452075   0.0086712318 
  658000     4000  2.0555999e-16  6.1121556e-09    0.073452075   0.0086713423 
  660000     4000  4.0099352e-16  6.1092615e-09    0.073452075   0.0086718429 
  662000     4000  9.4363034e-16  6.1066368e-09    0.073452075   0.0086722244 
  664000     4000  1.0373609e-15  6.1038641e-09    0.073452075    0.008672327 
  666000     4000  7.3672222e-16  6.1010347e-09    0.073452075   0.0086721578 
  668000     4000  4.8481018e-16  6.0984248e-09    0.073452075   0.0086717456 
  670000     4000  6.5748967e-17  6.0955836e-09    0.073452075   0.0086711564 
  672000     4000  1.3727294e-16  6.0928905e-09    0.073452075   0.0086713381 
  674000     4000  5.7103832e-16  6.0902958e-09    0.073452075   0.0086718639 
  676000     4000   7.968764e-16  6.0874863e-09    0.073452075   0.0086722116 
  678000     4000  1.0146519e-15  6.0849111e-09    0.073452075   0.0086722945 
  680000     4000  7.5393191e-16  6.0822334e-09    0.073452075   0.0086720876 
  682000     4000  2.5937883e-16  6.0794615e-09    0.073452075   0.0086716606 
  684000     4000  1.6488104e-16  6.0769384e-09    0.073452075   0.0086713424 
  686000     4000  1.5781514e-16  6.0742183e-09    0.073452075   0.0086713913 
  688000     4000  4.9022001e-16  6.0715931e-09    0.073452075   0.0086718954 
  690000     4000  9.1948178e-16  6.0690963e-09    0.073452075   0.0086721927 
  692000     4000  8.4840674e-16  6.0663628e-09    0.073452075   0.0086722469 
  694000     4000  6.7884271e-16  6.0638322e-09    0.073452075   0.0086720299 
  696000     4000  3.2266502e-16  6.0612583e-09    0.073452075   0.0086715803 
  698000     4000     3.9684e-18  6.0585648e-09    0.073452075   0.0086710163 
  700000     4000  2.5668561e-16  6.0561317e-09    0.073452075   0.0086714313 
  702000     4000  5.3756572e-16  6.0535298e-09    0.073452075   0.0086719148 
  704000     4000  7.8747643e-16  6.0509604e-09    0.073452075   0.0086721854 
  706000     4000  9.1749347e-16  6.0485437e-09    0.073452075   0.0086721935 
  708000     4000  5.3213237e-16  6.0458902e-09    0.073452075   0.0086719605 
  710000     4000  2.4028699e-16  6.0434136e-09    0.073452075   0.0086715153 
  712000     4000  1.3080728e-16  6.0409552e-09    0.073452075   0.0086713124 
  714000     4000  1.4457469e-16  6.0383517e-09    0.073452075   0.0086714814 
  716000     4000  5.9169762e-16  6.0359975e-09    0.073452075   0.0086719202 
  718000     4000  8.2398093e-16  6.0335006e-09    0.073452075   0.0086721686 
  720000     4000  7.3718062e-16  6.0309795e-09    0.073452075   0.0086721534 
  722000     4000  5.8259862e-16  6.0286384e-09    0.073452075    0.008671886 
  724000     4000  1.5651084e-16  6.0260808e-09    0.073452075   0.0086714418 
  726000     4000  5.9598592e-17  6.0236714e-09    0.073452075   0.0086711882 
  728000     4000  3.0746097e-16  6.0213297e-09    0.073452075   0.0086715276 
  730000     4000  4.8704057e-16  6.0188144e-09    0.073452075   0.0086719351 
  732000     4000  8.0644915e-16  6.0165219e-09    0.073452075   0.0086721379 
  734000     4000  7.6360082e-16  6.0141203e-09    0.073452075   0.0086721071 
  736000     4000   3.932555e-16  6.0116531e-09    0.073452075   0.0086718267 
  737501     4000  6.9681068e-16  6.0099946e-09    0.073452075   0.0086718267 
Loop time of 216.116 on 2 procs for 687500 steps with 4000 atoms, finish time Thu Jun 11 21:13:35 2026


Pair  time (%) = 165.133 (76.4097)
Neigh time (%) = 0.35807 (0.165684)
Comm  time (%) = 3.92748 (1.8173)
Outpt time (%) = 0.389025 (0.180008)
Other time (%) = 46.3078 (21.4273)

Nlocal:    2000 ave 2021 max 1979 min
Histogram: 1 0 0 0 0 0 0 0 0 1
Nghost:    264 ave 267 max 261 min
Histogram: 1 0 0 0 0 0 0 0 0 1
Neighs:    12170 ave 12354 max 11986 min
Histogram: 1 0 0 0 0 0 0 0 0 1

Total # of neighbors = 24340
Ave neighs/atom = 6.085
Neighbor list builds = 316
Dangerous builds = 0
Setting up run at Thu Jun 11 21:13:35 2026

Memory usage per processor = 17.4474 Mbytes
    Step    Atoms         KinEng            rke          ts[1]          ts[2] 
  737501     4000  6.9681068e-16  6.0099946e-09    0.073452075   0.0086718267 
  738000     4000  2.2632236e-16  6.0093937e-09    0.073452075   0.0018907748 
  740000     4000  4.8401175e-17  6.0069474e-09    0.073452075   0.0016502471 
  742000     4000  2.2845842e-16  6.0046091e-09    0.073452075   0.0020363044 
  744000     4000  6.3828659e-16  6.0023723e-09    0.073452075   0.0022463015 
  746000     4000  6.8444567e-16  5.9999375e-09    0.073452075    0.002316924 
  748000     4000  6.8904801e-16   5.997696e-09    0.073452075   0.0022891082 
  750000     4000  4.3954237e-16  5.9953919e-09    0.073452075   0.0021582002 
  752000     4000  6.7443026e-17  5.9929947e-09    0.073452075   0.0018330832 
  754000     4000  1.4261767e-16  5.9908232e-09    0.073452075   0.0018388375 
  756000     4000  2.6029007e-16  5.9884923e-09    0.073452075   0.0020570916 
  758000     4000  5.2081549e-16  5.9862183e-09    0.073452075   0.0022441519 
  760000     4000  7.9509876e-16  5.9840693e-09    0.073452075   0.0023089724 
  762000     4000  5.6288011e-16  5.9817129e-09    0.073452075   0.0022688488 
  764000     4000  3.4970517e-16  5.9795247e-09    0.073452075   0.0021184909 
  766000     4000  1.5768508e-16  5.9773273e-09    0.073452075   0.0018136719 
  768000     4000  2.2715815e-17  5.9750145e-09    0.073452075   0.0016488838 
  770000     4000   3.484973e-16  5.9729275e-09    0.073452075   0.0020801115 
  772000     4000  5.5586677e-16  5.9707048e-09    0.073452075   0.0022434808 
  774000     4000  6.3154891e-16  5.9684862e-09    0.073452075   0.0022942815 
  776000     4000  6.4001618e-16  5.9664155e-09    0.073452075   0.0022494737 
  778000     4000  2.5535452e-16  5.9641465e-09    0.073452075   0.0020825455 
  780000     4000   8.504702e-17  5.9620217e-09    0.073452075   0.0017015354 
  782000     4000  1.4892187e-16  5.9599366e-09    0.073452075   0.0018226111 
  784000     4000  2.4568411e-16  5.9577122e-09    0.073452075   0.0020923489 
  786000     4000  6.0097018e-16  5.9556968e-09    0.073452075   0.0022457112 
  787502     4000  2.2747855e-17  5.9540184e-09    0.073452075   0.0022457112 
Loop time of 15.0974 on 2 procs for 50001 steps with 4000 atoms, finish time Thu Jun 11 21:13:50 2026


Pair  time (%) = 11.8529 (78.5095)
Neigh time (%) = 0 (0)
Comm  time (%) = 0.2602 (1.72348)
Outpt time (%) = 0.0302085 (0.200091)
Other time (%) = 2.95409 (19.5669)

Nlocal:    2000 ave 2021 max 1979 min
Histogram: 1 0 0 0 0 0 0 0 0 1
Nghost:    264 ave 267 max 261 min
Histogram: 1 0 0 0 0 0 0 0 0 1
Neighs:    12170 ave 12354 max 11986 min
Histogram: 1 0 0 0 0 0 0 0 0 1

Total # of neighbors = 24340
Ave neighs/atom = 6.085
Neighbor list builds = 0
Dangerous builds = 0
AUDIT relax: KE = 2.27478552909239e-17 J  (heap should be static)
      245.99 real       485.63 user         2.98 sys
