LIGGGHTS (Version LIGGGHTS-PUBLIC 3.8.0, compiled 2026-06-11-14:52:41 by joshuamayo, git commit 3d5c00f20519e6bb6eb6756f51f1ad36564e649d)
Created orthogonal box = (-0.14 -0.14 -0.05) to (0.14 0.14 0.2)
  1 by 2 by 1 MPI processor grid
WARNING: 
	The contact model you specified is not located in any whitelist.
	Because of this the model will be run in an unoptimized version (increasing runtime by up to 20%).
	In order to optimize this model you have the following options:
		(i)  Run the genAutoExamplesWhitelist.sh script in your LIGGGHTS(R) source folder to automatically parse the input script
		(ii) Add the model combination by hand to your style_contact_model_user.whitelist that can be found in your LIGGGHTS(R) source folder
		(iii) Use the ENABLE_MODEL_* flag when building with cmake.
	If you perform one of the steps above LIGGGHTS(R) needs to be recompiled to generate the optimized code.

 (../contact_models.h:365)

Reading STL file '../../../../../templates/meshes/cylinder_r0.040_h0.100.stl' (mesh processing step 1/3) 

Reading STL file '../../../../../templates/meshes/floor_annulus_r0.046_o0.011.stl' (mesh processing step 1/3) 

Reading STL file '../../../../../templates/meshes/plug_disk_r0.0135.stl' (mesh processing step 1/3) 
WARNING: 
	The contact model you specified is not located in any whitelist.
	Because of this the model will be run in an unoptimized version (increasing runtime by up to 20%).
	In order to optimize this model you have the following options:
		(i)  Run the genAutoExamplesWhitelist.sh script in your LIGGGHTS(R) source folder to automatically parse the input script
		(ii) Add the model combination by hand to your style_contact_model_user.whitelist that can be found in your LIGGGHTS(R) source folder
		(iii) Use the ENABLE_MODEL_* flag when building with cmake.
	If you perform one of the steps above LIGGGHTS(R) needs to be recompiled to generate the optimized code.

 (../contact_models.h:365)

Reading STL file '../../../../../templates/meshes/catch_disk_r0.030.stl' (mesh processing step 1/3) 
Fix particledistribution/discrete (id pdd1): distribution based on mass%:
    pts1: d=3.400000e-03 (max. bounding sphere) mass%=25.000000%
    pts2: d=3.700000e-03 (max. bounding sphere) mass%=50.000000%
    pts3: d=4.000000e-03 (max. bounding sphere) mass%=25.000000%
Fix particledistribution/discrete (id pdd1): distribution based on number%:
    pts1: d=3.400000e-03 (max. bounding sphere) number%=31.585425%
    pts2: d=3.700000e-03 (max. bounding sphere) number%=49.017177%
    pts3: d=4.000000e-03 (max. bounding sphere) number%=19.397399%
Setting up run at Fri Jun 12 15:48:40 2026

Import and parallelization of mesh cyl containing 96 triangle(s) successful
Import and parallelization of mesh floor containing 96 triangle(s) successful
Import and parallelization of mesh plug containing 48 triangle(s) successful
Import and parallelization of mesh catch containing 48 triangle(s) successful
INFO: Resetting random generator for region bc
INFO: Particle insertion ins: inserting every 0 steps
Memory usage per processor = 15.7366 Mbytes
    Step    Atoms         KinEng          ms[1]          ts[1]          ts[2] 
       0        0              0              0              0              0 
insertion: proc 0 at 0 %
insertion: proc 1 at 0 %
insertion: proc 0 at 10 %
insertion: proc 1 at 10 %
insertion: proc 0 at 20 %
insertion: proc 1 at 20 %
insertion: proc 0 at 30 %
insertion: proc 1 at 30 %
insertion: proc 0 at 40 %
insertion: proc 1 at 40 %
insertion: proc 0 at 50 %
insertion: proc 1 at 50 %
insertion: proc 0 at 60 %
insertion: proc 1 at 60 %
insertion: proc 0 at 70 %
insertion: proc 1 at 70 %
insertion: proc 0 at 80 %
insertion: proc 1 at 80 %
insertion: proc 0 at 90 %
insertion: proc 1 at 90 %
INFO: Particle insertion ins: inserted 4000 particle templates (mass 1.456074e-01) at step 1
 - a total of 4000 particle templates (mass 1.456074e-01) inserted so far.
    1000     4000    0.010426758              0    0.073452075    0.020600207 
    2000     4000    0.014020689              0    0.073452075    0.021561495 
    3000     4000    0.016964499              0    0.073452075    0.022284105 
    4000     4000    0.019388004              0    0.073452075    0.022885977 
    5000     4000    0.020148188              0    0.073452075      0.0236306 
    6000     4000    0.018697615              0    0.073452075    0.023874221 
    7000     4000    0.014539552              0    0.073452075    0.024296886 
    8000     4000    0.006915459              0    0.073452075    0.024646937 
    9000     4000   0.0008423982              0    0.073452075    0.023911488 
   10000     4000  0.00026978399              0    0.073452075    0.021314846 
   11000     4000  9.8008076e-05              0    0.073452075    0.019840127 
   12000     4000  4.8571588e-05              0    0.073452075    0.019575853 
   13000     4000  2.3756016e-05              0    0.073452075    0.018076534 
   14000     4000  1.3541135e-05              0    0.073452075    0.018265513 
   15000     4000  8.3093519e-06              0    0.073452075    0.017248732 
   16000     4000  4.7878489e-06              0    0.073452075     0.01688798 
   17000     4000  3.9302811e-06              0    0.073452075    0.017215825 
   18000     4000  3.1330785e-06              0    0.073452075    0.017595458 
   19000     4000  2.9545387e-06              0    0.073452075    0.018742442 
   20000     4000  2.6771791e-06              0    0.073452075    0.017373615 
   21000     4000   2.120594e-06              0    0.073452075    0.017321502 
   22000     4000  1.1829481e-06              0    0.073452075    0.016025837 
   23000     4000  9.3559255e-07              0    0.073452075    0.015231187 
   24000     4000  5.8697356e-07              0    0.073452075    0.015217422 
   25000     4000  4.8794591e-07              0    0.073452075    0.014780054 
   26000     4000  3.7059753e-07              0    0.073452075    0.015454726 
   27000     4000  2.1549141e-07              0    0.073452075    0.014337081 
   28000     4000  2.1277679e-07              0    0.073452075      0.0142814 
   29000     4000  1.4230171e-07              0    0.073452075    0.014395791 
   30000     4000  2.0222741e-07              0    0.073452075    0.015344715 
   31000     4000  1.6453193e-07              0    0.073452075    0.014514607 
   32000     4000   1.353782e-07              0    0.073452075    0.015079768 
   33000     4000  5.1240785e-08              0    0.073452075    0.013687211 
   34000     4000  7.5031423e-09              0    0.073452075    0.010633548 
   35000     4000   1.215964e-08              0    0.073452075    0.011067157 
   36000     4000  1.2968063e-08              0    0.073452075    0.011690926 
   37000     4000  6.2782947e-09              0    0.073452075    0.010740418 
   38000     4000   6.844239e-09              0    0.073452075    0.011256456 
   39000     4000  3.2000559e-09              0    0.073452075   0.0097824468 
   40000     4000  5.5983074e-10              0    0.073452075   0.0079975661 
   41000     4000  2.5496591e-10              0    0.073452075   0.0053000176 
   42000     4000  1.5776733e-10              0    0.073452075   0.0049840232 
   43000     4000  8.9117722e-11              0    0.073452075   0.0054204182 
   44000     4000  1.2330219e-10              0    0.073452075   0.0051185174 
   45000     4000  4.8289733e-11              0    0.073452075   0.0049747376 
   46000     4000  7.0134688e-11              0    0.073452075   0.0053882198 
   47000     4000  6.4256941e-11              0    0.073452075   0.0049543846 
   48000     4000  2.8170817e-11              0    0.073452075   0.0051965465 
   49000     4000  5.4172595e-11              0    0.073452075   0.0051967452 
   50000     4000   3.522504e-11              0    0.073452075   0.0048977657 
Loop time of 28.4032 on 2 procs for 50000 steps with 4000 atoms, finish time Fri Jun 12 15:49:08 2026


Pair  time (%) = 16.1663 (56.917)
Neigh time (%) = 0.10888 (0.383337)
Comm  time (%) = 0.546934 (1.92561)
Outpt time (%) = 0.010512 (0.0370099)
Other time (%) = 11.5706 (40.7371)

Nlocal:    2000 ave 2002 max 1998 min
Histogram: 1 0 0 0 0 0 0 0 0 1
Nghost:    378.5 ave 381 max 376 min
Histogram: 1 0 0 0 0 0 0 0 0 1
Neighs:    13656.5 ave 13680 max 13633 min
Histogram: 1 0 0 0 0 0 0 0 0 1

Total # of neighbors = 27313
Ave neighs/atom = 6.82825
Neighbor list builds = 75
Dangerous builds = 0
AUDIT settle: atoms = 4000 (target 4000)
Setting up run at Fri Jun 12 15:49:08 2026

Memory usage per processor = 21.1366 Mbytes
    Step    Atoms         KinEng          ms[1]          ts[1]          ts[2] 
   50000     4000   3.522504e-11              0    0.073452075   0.0048977657 
   51000     4000   3.207849e-05              0    0.073452075    0.019942048 
   52000     4000  4.1955408e-05              0    0.073452075     0.02040594 
   53000     4000   4.243492e-05              0    0.073452075    0.020831316 
   54000     4000  7.3801697e-05              0    0.073452075    0.021226539 
   55000     4000   0.0001158284              0    0.073452075    0.021596257 
   56000     4000  0.00017517804              0    0.073452075    0.022091654 
   57000     4000  0.00026154806              0    0.073452075    0.022702044 
   58000     4000  0.00036806914              0    0.073452075    0.023253248 
   59000     4000   0.0004975161              0    0.073452075    0.023789156 
   60000     3982  0.00043806004  0.00059494194    0.073452075    0.023987577 
   61000     3975  0.00045651312  0.00088420764    0.073452075      0.0237847 
   61250     3975  0.00048969046  0.00088420764    0.073452075      0.0237847 
Loop time of 7.66566 on 2 procs for 11250 steps with 3975 atoms, finish time Fri Jun 12 15:49:16 2026


Pair  time (%) = 4.34293 (56.6544)
Neigh time (%) = 0.0869905 (1.13481)
Comm  time (%) = 0.156111 (2.0365)
Outpt time (%) = 0.0003505 (0.00457234)
Other time (%) = 3.07928 (40.1698)

Nlocal:    1987.5 ave 1991 max 1984 min
Histogram: 1 0 0 0 0 0 0 0 0 1
Nghost:    383.5 ave 384 max 383 min
Histogram: 1 0 0 0 0 0 0 0 0 1
Neighs:    13300.5 ave 13331 max 13270 min
Histogram: 1 0 0 0 0 0 0 0 0 1

Total # of neighbors = 26601
Ave neighs/atom = 6.69208
Neighbor list builds = 54
Dangerous builds = 0
Setting up run at Fri Jun 12 15:49:16 2026

Memory usage per processor = 21.1366 Mbytes
    Step    Atoms         KinEng          ms[1]          ts[1]          ts[2] 
   61250     3975  0.00048969046  0.00088420764    0.073452075      0.0237847 
   62000     3972  0.00055426141     0.00103273    0.073452075    0.024106862 
   63000     3963  0.00058744857   0.0014279974    0.073452075    0.024293843 
   64000     3951  0.00057767933   0.0018310439    0.073452075    0.024269102 
   65000     3942   0.0006087605   0.0021226985    0.073452075    0.024221492 
   66000     3932   0.0006269696   0.0025067175    0.073452075    0.024333855 
   67000     3924  0.00065797339   0.0029923444    0.073452075    0.024343077 
   68000     3912   0.0006458352   0.0032273007    0.073452075    0.024430975 
   69000     3899  0.00065001702   0.0036698667    0.073452075    0.024404836 
   70000     3888  0.00063321725   0.0040939455    0.073452075     0.02440373 
   71000     3872  0.00055450011   0.0046850339    0.073452075    0.024517108 
   72000     3860  0.00052052506   0.0050880803    0.073452075    0.024361211 
   73000     3854  0.00057311974    0.005379735    0.073452075    0.024530956 
   74000     3843  0.00055190371   0.0057275477    0.073452075    0.024486987 
   75000     3836   0.0006045302   0.0059170543    0.073452075    0.024480164 
   76000     3828  0.00060895024   0.0062184928    0.073452075    0.024460306 
   77000     3816  0.00057156016   0.0066405667    0.073452075    0.024517286 
   78000     3805  0.00053078032   0.0071178743    0.073452075     0.02458025 
   79000     3799  0.00055484716   0.0073147757    0.073452075    0.024455582 
   80000     3789  0.00053202636   0.0076337771    0.073452075     0.02435311 
   81000     3778  0.00049928496   0.0080466074    0.073452075    0.024631015 
   82000     3771  0.00049989948   0.0083094508    0.073452075     0.02427147 
   83000     3765  0.00054142388   0.0085087412    0.073452075    0.024512976 
   84000     3756  0.00052408746   0.0088473103    0.073452075    0.024523749 
   85000     3750  0.00057609645   0.0091184729    0.073452075    0.024452551 
   86000     3741  0.00060045343   0.0093837052    0.073452075    0.024552866 
   87000     3727  0.00055140418   0.0098898242    0.073452075    0.024323574 
   88000     3720  0.00060841995    0.010170771    0.073452075    0.024312633 
   89000     3714  0.00068060612    0.010413122    0.073452075    0.024453343 
   90000     3705  0.00070268473    0.010776649    0.073452075    0.024384709 
   91000     3694  0.00071386852    0.011197798    0.073452075    0.024450222 
   92000     3683  0.00069455464    0.011592525    0.073452075    0.024651688 
   93000     3673  0.00069283352     0.01200628    0.073452075    0.024539906 
   94000     3660  0.00063838614     0.01246456    0.073452075     0.02443226 
   95000     3651  0.00066793164    0.012782097    0.073452075    0.024567698 
   96000     3639  0.00065014014    0.013158721    0.073452075     0.02444747 
   97000     3627  0.00061349058    0.013612536    0.073452075    0.024468752 
   98000     3613  0.00053763696    0.014224656    0.073452075    0.024619495 
   99000     3597  0.00040894329    0.014666298    0.073452075    0.024519147 
  100000     3591  0.00041928519     0.01490033    0.073452075    0.024294354 
  101000     3586    0.000465282    0.015142681    0.073452075    0.024553763 
  102000     3580  0.00049363996    0.015387421    0.073452075    0.024503068 
  103000     3572   0.0004958053    0.015640481    0.073452075    0.024398726 
  104000     3563  0.00048770185      0.0160245    0.073452075    0.024299831 
  105000     3553  0.00048696397    0.016304906    0.073452075     0.02428294 
  106000     3543  0.00047139526    0.016659573    0.073452075    0.024403438 
  107000     3537  0.00051231423    0.016914098    0.073452075    0.024382289 
  108000     3530  0.00055739451    0.017130026    0.073452075    0.024197058 
  109000     3526  0.00063853323    0.017317144    0.073452075    0.024462103 
  110000     3512  0.00059223599    0.017787597    0.073452075     0.02450107 
  111000     3499  0.00053218406    0.018258974    0.073452075    0.024448485 
  112000     3492   0.0005569822    0.018483222    0.073452075    0.024383456 
  113000     3482  0.00055663465     0.01887502    0.073452075    0.024544196 
  114000     3476  0.00060998272    0.019045499    0.073452075    0.024335375 
  115000     3464    0.000586976    0.019522807    0.073452075    0.024580184 
  116000     3454  0.00061146327    0.019860836    0.073452075     0.02439646 
  117000     3443   0.0006053477    0.020248709    0.073452075    0.024582843 
  118000     3429  0.00054009321    0.020737265    0.073452075    0.024520218 
  119000     3423  0.00059330258    0.020953193    0.073452075    0.024495837 
  120000     3415  0.00060776175    0.021251703    0.073452075    0.024345606 
  121000     3408  0.00067750186    0.021588807    0.073452075    0.024431794 
  122000     3397  0.00067080398    0.021991854    0.073452075    0.024490982 
  123000     3383  0.00063039169    0.022452523    0.073452075    0.024324125 
  124000     3376   0.0006760089    0.022678236    0.073452075    0.024379712 
  125000     3358  0.00058177932     0.02330499    0.073452075    0.024549274 
  126000     3350  0.00059461763    0.023596645    0.073452075     0.02453422 
  127000     3341   0.0006188458    0.023923965    0.073452075    0.024409059 
  128000     3331  0.00063361843    0.024355823    0.073452075    0.024530458 
  129000     3319  0.00059643528    0.024786756    0.073452075    0.024356952 
  130000     3308  0.00056673226    0.025134569    0.073452075    0.024469039 
  131000     3297  0.00053450545    0.025576211    0.073452075    0.024605084 
  132000     3289  0.00055870937    0.025819486    0.073452075    0.024513236 
  133000     3279  0.00054994386    0.026202041    0.073452075     0.02436594 
  134000     3273  0.00061463152    0.026419434    0.073452075    0.024314828 
  135000     3267  0.00067764215    0.026680813    0.073452075    0.024458379 
  136000     3253  0.00061654565    0.027167905    0.073452075    0.024365887 
  137000     3242  0.00058193277    0.027599762    0.073452075    0.024481229 
  138000     3232  0.00056102686    0.027966218    0.073452075    0.024355733 
  139000     3225  0.00058599856    0.028219278    0.073452075    0.024518086 
  140000     3216  0.00058820909    0.028585194    0.073452075    0.024398171 
  141000     3207  0.00058120577    0.028903271    0.073452075    0.024400605 
  142000     3194   0.0005299722    0.029394216    0.073452075    0.024364072 
  143000     3181  0.00046254949    0.029882772    0.073452075    0.024536911 
  144000     3173  0.00046788468    0.030266791    0.073452075    0.024540852 
  145000     3167   0.0004890935    0.030416778    0.073452075    0.024477467 
  146000     3160  0.00049911775    0.030632707    0.073452075    0.024474767 
  147000     3152  0.00049786005    0.030932681    0.073452075    0.024487046 
  148000     3143  0.00047360868    0.031261466    0.073452075    0.024517365 
  149000     3136  0.00048686213    0.031580467    0.073452075    0.024529861 
  150000     3128  0.00049091288    0.031804715    0.073452075    0.024422286 
  151000     3122  0.00051057849    0.032132576    0.073452075    0.024524952 
  152000     3112  0.00050798336    0.032414447    0.073452075    0.024434763 
  153000     3099  0.00044502109    0.032878046    0.073452075    0.024247017 
  154000     3096   0.0005351024    0.032981118    0.073452075    0.024335419 
  155000     3089   0.0005906438    0.033253205    0.073452075    0.024439624 
  156000     3081  0.00061864437    0.033569817    0.073452075    0.024583948 
  157000     3069  0.00056096463    0.033981183    0.073452075    0.024481211 
  158000     3063  0.00062497849    0.034188793    0.073452075    0.024461731 
  159000     3054  0.00064455593    0.034546389    0.073452075     0.02455821 
  160000     3043  0.00061629181    0.034967539    0.073452075    0.024510179 
  161000     3033  0.00062053271    0.035314427    0.073452075    0.024490769 
  162000     3020  0.00059031511    0.035841038    0.073452075    0.024579545 
  163000     3009  0.00058502969    0.036144866    0.073452075    0.024304057 
  164000     3000  0.00058255206    0.036566015    0.073452075    0.024311649 
  165000     2992  0.00059217193    0.036837178    0.073452075     0.02444128 
  166000     2985  0.00062921068    0.037174283    0.073452075    0.024550132 
  167000     2974  0.00062070127    0.037521171    0.073452075    0.024432011 
  168000     2964    0.000606641    0.037954493    0.073452075    0.024554642 
  169000     2952  0.00056206635    0.038338512    0.073452075    0.024511712 
  170000     2943  0.00056231892    0.038618918    0.073452075    0.024470302 
  171000     2934  0.00054788174    0.039002937    0.073452075    0.024603564 
  172000     2924  0.00053761931    0.039331723    0.073452075    0.024373021 
  173000     2917   0.0005648978    0.039611205    0.073452075    0.024446565 
  174000     2908  0.00054564571    0.040013327    0.073452075    0.024427849 
  175000     2896  0.00050260851     0.04039827    0.073452075    0.024437879 
  176000     2887  0.00050320183    0.040708952    0.073452075    0.024400903 
  177000     2878  0.00048069876    0.041034808    0.073452075    0.024398512 
  178000     2873  0.00051143886    0.041241493    0.073452075    0.024487649 
  179000     2862  0.00049469626    0.041627901    0.073452075    0.024361035 
  180000     2853  0.00048224595    0.041983109    0.073452075    0.024490984 
  181000     2847  0.00050556328    0.042207357    0.073452075    0.024376373 
  182000     2839  0.00052098108    0.042554245    0.073452075    0.024451022 
  183000     2829  0.00051997956    0.042911842    0.073452075    0.024534829 
  184000     2820  0.00049989434      0.0432216    0.073452075    0.024293338 
  185000     2815  0.00052750457    0.043428285    0.073452075    0.024477307 
  186000     2808   0.0005618949    0.043681345    0.073452075     0.02442589 
  187000     2799  0.00058562367    0.044027693    0.073452075    0.024369173 
  188000     2788  0.00055686626    0.044543596    0.073452075    0.024448143 
  189000     2773  0.00043919608    0.044954961    0.073452075    0.024323075 
  190000     2769  0.00051291049    0.045078526    0.073452075    0.024408809 
  191000     2762  0.00052047624    0.045367792    0.073452075    0.024286368 
  192000     2756  0.00056322061    0.045573937    0.073452075    0.024433506 
  193000     2746  0.00055363383    0.045966275    0.073452075    0.024469112 
  194000     2738  0.00056580103    0.046350294    0.073452075    0.024413682 
  195000     2730  0.00057470995    0.046660052    0.073452075    0.024439716 
  196000     2717  0.00050326531    0.047090985    0.073452075    0.024410235 
  197000     2708  0.00049614429    0.047409986    0.073452075    0.024318068 
  198000     2699   0.0004885901    0.047814497    0.073452075    0.024499525 
  199000     2693  0.00051088328    0.047993296    0.073452075      0.0246302 
  200000     2684  0.00049990116     0.04828495    0.073452075    0.024412873 
  201000     2675  0.00049500065    0.048657721    0.073452075    0.024308481 
  202000     2667  0.00050134078    0.048978187    0.073452075    0.024457287 
  203000     2660   0.0005329028    0.049202435    0.073452075    0.024573935 
  204000     2650  0.00051717862    0.049624509    0.073452075    0.024511464 
  205000     2639  0.00047702401    0.049914699    0.073452075    0.024223691 
  206000     2631  0.00049465731    0.050204889    0.073452075    0.024314325 
  207000     2626  0.00054652406    0.050430602    0.073452075    0.024304347 
  208000     2613  0.00051254923    0.050881487    0.073452075    0.024447542 
  209000     2604  0.00052018234    0.051155039    0.073452075    0.024398856 
  210000     2596  0.00054045825    0.051435445    0.073452075    0.024417426 
  211000     2589  0.00057467437    0.051705143    0.073452075    0.024353144 
  212000     2579  0.00058289041    0.052069594    0.073452075    0.024370105 
  213000     2567    0.000558225    0.052509771    0.073452075    0.024315568 
  214000     2555  0.00052688812    0.052951413    0.073452075    0.024520698 
  215000     2547  0.00055995081     0.05321518    0.073452075    0.024355597 
  216000     2540  0.00059610429    0.053458456    0.073452075    0.024407095 
  217000     2530  0.00060073828    0.053822907    0.073452075    0.024348058 
  218000     2519  0.00057534574    0.054288042    0.073452075    0.024510045 
  219000     2507  0.00054313835     0.05467984    0.073452075    0.024602202 
  220000     2496  0.00050798028    0.055081422    0.073452075    0.024461024 
  221000     2490  0.00054283678    0.055287567    0.073452075    0.024255481 
  222000     2482  0.00055767686    0.055605644    0.073452075    0.024367577 
  223000     2473  0.00055745789    0.055989663    0.073452075    0.024346971 
  224000     2467  0.00061040176    0.056288712    0.073452075    0.024401351 
  225000     2455  0.00058580191     0.05667512    0.073452075    0.024388283 
Loop time of 85.8527 on 2 procs for 163750 steps with 2455 atoms, finish time Fri Jun 12 15:50:41 2026


Pair  time (%) = 45.9619 (53.5358)
Neigh time (%) = 1.48953 (1.73498)
Comm  time (%) = 1.71788 (2.00097)
Outpt time (%) = 0.02265 (0.0263824)
Other time (%) = 36.6607 (42.7019)

Nlocal:    1227.5 ave 1248 max 1207 min
Histogram: 1 0 0 0 0 0 0 0 0 1
Nghost:    201 ave 201 max 201 min
Histogram: 2 0 0 0 0 0 0 0 0 0
Neighs:    7512 ave 7701 max 7323 min
Histogram: 1 0 0 0 0 0 0 0 0 1

Total # of neighbors = 15024
Ave neighs/atom = 6.11976
Neighbor list builds = 1161
Dangerous builds = 0
AUDIT discharge-end: crossed mass = 0.0566751204293959 kg, atoms left = 2455
