LIGGGHTS (Version LIGGGHTS-PUBLIC 3.8.0, compiled 2026-06-11-14:52:41 by joshuamayo, git commit 3d5c00f20519e6bb6eb6756f51f1ad36564e649d)
# drawdown.in — Parameterized orifice-discharge (drawdown) flow test (Phase-9 probe).
#
# Fill the lifted-cylinder geometry over an annular floor whose orifice is
# blocked by a plug disk; settle; remove the plug; discharge through the
# orifice. Mass flow rate comes from fix massflow/mesh on a counting disk
# below the floor (delete_atoms keeps the shrink-wrapped domain bounded —
# the Phase-5 neighbor-grid lesson). The probe question is DISCRIMINATION
# along the Phase-8 friction valley, so no physical target is required yet.
#
# Inertial orifice flow is a genuinely different regime from the quasi-static
# heap and the slow-rolling drum — the two responses that proved degenerate
# for single spheres (results/phase9-drum/NOTES.md, M4).
#
# Run (from repo root):
#   mpirun -np 2 lmp_auto -in templates/drawdown.in \
#       -var TAG dev -var FRIC 0.4 -var ROLLFRIC 0.12 -var REST 0.5 -log log.dev
#
# Atom types: 1 = particles, 2 = walls (cylinder + floor + plug; matrix as aor.in).

# ---------------------------------------------------------------- variables
variable FRIC       index 0.40          # mu_s particle-particle  [calibration target]
variable FRICPW     index 0.40          # mu_s particle-wall      [calibration target]
variable ROLLFRIC   index 0.12          # mu_r particle-particle, epsd2 [target]
variable ROLLFRICPW index 0.12          # mu_r particle-wall, epsd2     [target]
variable REST       index 0.50          # restitution             [target, weak]
variable SEED       index 49979687      # insertion seed
variable TAG        index dev           # output label
variable NPART      index 4000          # particles inserted (the aor fill)
variable MESH       index templates/meshes/cylinder_r0.040_h0.100.stl
variable FLOORMESH  index templates/meshes/floor_annulus_r0.046_o0.011.stl
variable PLUGMESH   index templates/meshes/plug_disk_r0.0135.stl
variable CATCHMESH  index templates/meshes/catch_disk_r0.030.stl
variable YMOD       index 1.0e7         # softened Young's modulus [Pa]
variable DT         index 8.0e-6        # timestep [s]
variable GRAVZ      index -1.0          # gravity z sign (fault-injection knob)
variable SETTLET    index 0.4           # settle stage [s]
variable DISCHARGE  index 1.4           # discharge stage [s] (~full drain at D_o 22 mm)

# fixed (non-calibrated) material inputs
variable POIS       equal 0.25
variable RHO        equal 1400

variable settlesteps equal floor(v_SETTLET/v_DT+0.5)
variable opensteps   equal floor(0.09/v_DT+0.5)
variable dischsteps  equal floor(v_DISCHARGE/v_DT+0.5)-floor(0.09/v_DT+0.5)
variable dumpevery   equal 25000

# ---------------------------------------------------------------- setup
atom_style	granular
atom_modify	map array
boundary	m m m
newton		off
communicate	single vel yes
units		si

region		reg block -0.14 0.14 -0.14 0.14 -0.05 0.20 units box
create_box	2 reg
Created orthogonal box = (-0.14 -0.14 -0.05) to (0.14 0.14 0.2)
  1 by 2 by 1 MPI processor grid

neighbor	0.002 bin
neigh_modify	delay 0

# ---------------------------------------------------------------- material / contact model
fix 	m1 all property/global youngsModulus peratomtype ${YMOD} ${YMOD}
fix 	m1 all property/global youngsModulus peratomtype 1.0e7 ${YMOD}
fix 	m1 all property/global youngsModulus peratomtype 1.0e7 1.0e7
fix 	m2 all property/global poissonsRatio peratomtype ${POIS} ${POIS}
fix 	m2 all property/global poissonsRatio peratomtype 0.25 ${POIS}
fix 	m2 all property/global poissonsRatio peratomtype 0.25 0.25
fix 	m3 all property/global coefficientRestitution peratomtypepair 2 ${REST} ${REST} ${REST} ${REST}
fix 	m3 all property/global coefficientRestitution peratomtypepair 2 0.7 ${REST} ${REST} ${REST}
fix 	m3 all property/global coefficientRestitution peratomtypepair 2 0.7 0.7 ${REST} ${REST}
fix 	m3 all property/global coefficientRestitution peratomtypepair 2 0.7 0.7 0.7 ${REST}
fix 	m3 all property/global coefficientRestitution peratomtypepair 2 0.7 0.7 0.7 0.7
fix 	m4 all property/global coefficientFriction peratomtypepair 2 ${FRIC} ${FRICPW} ${FRICPW} ${FRICPW}
fix 	m4 all property/global coefficientFriction peratomtypepair 2 0.6 ${FRICPW} ${FRICPW} ${FRICPW}
fix 	m4 all property/global coefficientFriction peratomtypepair 2 0.6 0.6 ${FRICPW} ${FRICPW}
fix 	m4 all property/global coefficientFriction peratomtypepair 2 0.6 0.6 0.6 ${FRICPW}
fix 	m4 all property/global coefficientFriction peratomtypepair 2 0.6 0.6 0.6 0.6
fix 	m5 all property/global coefficientRollingFriction peratomtypepair 2 ${ROLLFRIC} ${ROLLFRICPW} ${ROLLFRICPW} ${ROLLFRICPW}
fix 	m5 all property/global coefficientRollingFriction peratomtypepair 2 0.1203 ${ROLLFRICPW} ${ROLLFRICPW} ${ROLLFRICPW}
fix 	m5 all property/global coefficientRollingFriction peratomtypepair 2 0.1203 0.1203 ${ROLLFRICPW} ${ROLLFRICPW}
fix 	m5 all property/global coefficientRollingFriction peratomtypepair 2 0.1203 0.1203 0.1203 ${ROLLFRICPW}
fix 	m5 all property/global coefficientRollingFriction peratomtypepair 2 0.1203 0.1203 0.1203 0.1203

pair_style gran model hertz tangential history rolling_friction epsd2
WARNING: 
	The contact model you specified is not located in any whitelist.
	Because of this the model will be run in an unoptimized version (increasing runtime by up to 20%).
	In order to optimize this model you have the following options:
		(i)  Run the genAutoExamplesWhitelist.sh script in your LIGGGHTS(R) source folder to automatically parse the input script
		(ii) Add the model combination by hand to your style_contact_model_user.whitelist that can be found in your LIGGGHTS(R) source folder
		(iii) Use the ENABLE_MODEL_* flag when building with cmake.
	If you perform one of the steps above LIGGGHTS(R) needs to be recompiled to generate the optimized code.

 (../contact_models.h:365)
pair_coeff	* *

timestep	${DT}
timestep	8.0e-6

fix		gravi all gravity 9.81 vector 0.0 0.0 ${GRAVZ}
fix		gravi all gravity 9.81 vector 0.0 0.0 -1.0

# cylinder side wall + annular floor + plug: ONE wall fix — LIGGGHTS 3.8
# supports a single wall/gran of style mesh, so the plug cannot get its own
# (first smoke run failed on exactly that). The orifice opens by MOVING the
# plug down out of the flow (fix move/mesh, the aor.in lift pattern) and
# parking it below the counting plane.
fix cyl   all mesh/surface file ${MESH} type 2
fix cyl   all mesh/surface file ../../../../../templates/meshes/cylinder_r0.040_h0.100.stl type 2
fix floor all mesh/surface file ${FLOORMESH} type 2
fix floor all mesh/surface file ../../../../../templates/meshes/floor_annulus_r0.046_o0.011.stl type 2
fix plug  all mesh/surface file ${PLUGMESH} type 2
fix plug  all mesh/surface file ../../../../../templates/meshes/plug_disk_r0.0135.stl type 2
fix statwall all wall/gran model hertz tangential history rolling_friction epsd2 mesh n_meshes 3 meshes cyl floor plug
WARNING: 
	The contact model you specified is not located in any whitelist.
	Because of this the model will be run in an unoptimized version (increasing runtime by up to 20%).
	In order to optimize this model you have the following options:
		(i)  Run the genAutoExamplesWhitelist.sh script in your LIGGGHTS(R) source folder to automatically parse the input script
		(ii) Add the model combination by hand to your style_contact_model_user.whitelist that can be found in your LIGGGHTS(R) source folder
		(iii) Use the ENABLE_MODEL_* flag when building with cmake.
	If you perform one of the steps above LIGGGHTS(R) needs to be recompiled to generate the optimized code.

 (../contact_models.h:365)

# counting plane below the orifice — NOT a wall; massflow counts + deletes
fix catch all mesh/surface file ${CATCHMESH} type 2
fix catch all mesh/surface file ../../../../../templates/meshes/catch_disk_r0.030.stl type 2
fix ms all massflow/mesh mesh catch vec_side 0. 0. -1. count once delete_atoms yes

# ---------------------------------------------------------------- particles (fixed PSD)
fix	pts1 all particletemplate/sphere 15485863 atom_type 1 density constant ${RHO} radius constant 0.0017
fix	pts1 all particletemplate/sphere 15485863 atom_type 1 density constant 1400 radius constant 0.0017
fix	pts2 all particletemplate/sphere 15485867 atom_type 1 density constant ${RHO} radius constant 0.00185
fix	pts2 all particletemplate/sphere 15485867 atom_type 1 density constant 1400 radius constant 0.00185
fix	pts3 all particletemplate/sphere 32452843 atom_type 1 density constant ${RHO} radius constant 0.0020
fix	pts3 all particletemplate/sphere 32452843 atom_type 1 density constant 1400 radius constant 0.0020
fix	pdd1 all particledistribution/discrete 32452867 3 pts1 0.25 pts2 0.50 pts3 0.25

region	bc cylinder z 0. 0. 0.0375 0.004 0.085 units box
fix	ins all insert/pack seed ${SEED} distributiontemplate pdd1 vel constant 0. 0. -0.3 		insert_every once overlapcheck yes all_in yes particles_in_region ${NPART} region bc
fix	ins all insert/pack seed 49979687 distributiontemplate pdd1 vel constant 0. 0. -0.3 		insert_every once overlapcheck yes all_in yes particles_in_region ${NPART} region bc
fix	ins all insert/pack seed 49979687 distributiontemplate pdd1 vel constant 0. 0. -0.3 		insert_every once overlapcheck yes all_in yes particles_in_region 4000 region bc

fix	integr all nve/sphere

# nevery 1000 to match the fine thermo cadence (thermo errors out when a
# referenced fix computes on an incompatible schedule)
fix	ts all check/timestep/gran 1000 0.1 0.1

# ---------------------------------------------------------------- output
# fine-grained thermo (8 ms) is the measurement: f_ms[1] = crossed mass [kg]
compute	rke all erotate/sphere
thermo_style	custom step atoms ke f_ms[1] f_ts[1] f_ts[2]
thermo		1000
thermo_modify	lost ignore norm no
dump	dmp all custom ${dumpevery} post/${TAG}_*.liggghts id type x y z vx vy vz omegax omegay omegaz radius
dump	dmp all custom 25000 post/${TAG}_*.liggghts id type x y z vx vy vz omegax omegay omegaz radius
dump	dmp all custom 25000 post/ddfce9facbb7_s49979687_*.liggghts id type x y z vx vy vz omegax omegay omegaz radius

# ---------------------------------------------------------------- stages
# stage 1 — fill and settle over the plugged orifice
run	${settlesteps}
run	50000
Setting up run at Fri Jun 12 15:50:40 2026

INFO: Particle insertion ins: inserting every 0 steps
Memory usage per processor = 15.7366 Mbytes
    Step    Atoms         KinEng          ms[1]          ts[1]          ts[2] 
       0        0              0              0              0              0 
INFO: Particle insertion ins: inserted 4000 particle templates (mass 1.456074e-01) at step 1
 - a total of 4000 particle templates (mass 1.456074e-01) inserted so far.
    1000     4000    0.010426758              0    0.073452075    0.020600207 
    2000     4000    0.014180541              0    0.073452075    0.021729799 
    3000     4000    0.017245328              0    0.073452075    0.022362988 
    4000     4000    0.019699663              0    0.073452075    0.022949374 
    5000     4000    0.020958585              0    0.073452075    0.023386958 
    6000     4000    0.019723773              0    0.073452075    0.023854173 
    7000     4000    0.015676191              0    0.073452075    0.024555604 
    8000     4000   0.0083734549              0    0.073452075    0.025080318 
    9000     4000   0.0012023575              0    0.073452075    0.024041778 
   10000     4000  0.00028586363              0    0.073452075    0.021707165 
   11000     4000  0.00011692468              0    0.073452075     0.01983465 
   12000     4000  6.3338075e-05              0    0.073452075    0.018809382 
   13000     4000  2.9696291e-05              0    0.073452075     0.01893205 
   14000     4000  1.7335029e-05              0    0.073452075    0.018105933 
   15000     4000  1.3143402e-05              0    0.073452075    0.019115153 
   16000     4000  6.6382838e-06              0    0.073452075    0.017316033 
   17000     4000  4.7261951e-06              0    0.073452075    0.017286854 
   18000     4000  2.9787299e-06              0    0.073452075    0.016594636 
   19000     4000  1.5058992e-06              0    0.073452075    0.016214865 
   20000     4000  1.2447131e-06              0    0.073452075    0.015874843 
   21000     4000  1.0340632e-06              0    0.073452075     0.01601891 
   22000     4000  5.6661759e-07              0    0.073452075      0.0146264 
   23000     4000  6.0855563e-07              0    0.073452075     0.01479586 
   24000     4000  7.6124165e-07              0    0.073452075    0.015941286 
   25000     4000  8.9023296e-07              0    0.073452075    0.016434786 
   26000     4000  4.7043109e-07              0    0.073452075    0.015042888 
   27000     4000  5.1146017e-07              0    0.073452075    0.015662943 
   28000     4000  1.7220419e-07              0    0.073452075    0.013757676 
   29000     4000  1.0661407e-07              0    0.073452075    0.013450182 
   30000     4000  5.6457677e-08              0    0.073452075    0.013477262 
   31000     4000   7.651277e-08              0    0.073452075    0.014465101 
   32000     4000   2.041652e-08              0    0.073452075    0.012586551 
   33000     4000   7.532349e-09              0    0.073452075    0.010108436 
   34000     4000  7.1145677e-09              0    0.073452075    0.010427727 
   35000     4000  1.6368049e-08              0    0.073452075    0.011921485 
   36000     4000  1.1458929e-08              0    0.073452075    0.011118027 
   37000     4000  8.2398935e-09              0    0.073452075    0.011418254 
   38000     4000   1.677583e-08              0    0.073452075    0.012225945 
   39000     4000  2.9277123e-08              0    0.073452075    0.013099045 
   40000     4000  5.8379857e-08              0    0.073452075    0.014045936 
   41000     4000  1.1603766e-07              0    0.073452075    0.015054193 
   42000     4000  6.5654983e-08              0    0.073452075    0.014212591 
   43000     4000  2.8880004e-08              0    0.073452075    0.012773167 
   44000     4000  2.7816291e-08              0    0.073452075    0.012916302 
   45000     4000  5.3597477e-09              0    0.073452075    0.010436216 
   46000     4000  8.5385622e-10              0    0.073452075   0.0078317171 
   47000     4000  7.3689479e-10              0    0.073452075   0.0079744156 
   48000     4000  1.3567958e-09              0    0.073452075   0.0091369698 
   49000     4000  2.2443109e-09              0    0.073452075    0.010033627 
   50000     4000  5.8180815e-10              0    0.073452075   0.0062606003 
Loop time of 19.2783 on 2 procs for 50000 steps with 4000 atoms, finish time Fri Jun 12 15:50:59 2026


Pair  time (%) = 11.8929 (61.6907)
Neigh time (%) = 0.100333 (0.520447)
Comm  time (%) = 0.415549 (2.15553)
Outpt time (%) = 0.0102185 (0.0530051)
Other time (%) = 6.85929 (35.5803)

Nlocal:    2000 ave 2005 max 1995 min
Histogram: 1 0 0 0 0 0 0 0 0 1
Nghost:    382.5 ave 384 max 381 min
Histogram: 1 0 0 0 0 0 0 0 0 1
Neighs:    13938 ave 13950 max 13926 min
Histogram: 1 0 0 0 0 0 0 0 0 1

Total # of neighbors = 27876
Ave neighs/atom = 6.969
Neighbor list builds = 78
Dangerous builds = 0
variable natoms equal atoms
print	"AUDIT settle: atoms = ${natoms} (target ${NPART})"
AUDIT settle: atoms = 4000 (target 4000)

# stage 2 — open the orifice: slide the plug down at 0.5 m/s for 0.09 s
# (parks at z ~ -0.044, below the counting plane), then discharge
fix	mvplug all move/mesh mesh plug linear 0. 0. -0.5
run	${opensteps}
run	11250
Setting up run at Fri Jun 12 15:50:59 2026

Memory usage per processor = 21.1374 Mbytes
    Step    Atoms         KinEng          ms[1]          ts[1]          ts[2] 
   50000     4000  5.8180815e-10              0    0.073452075   0.0062606003 
   51000     4000  2.2479173e-05              0    0.073452075    0.019905444 
   52000     4000  4.0239104e-05              0    0.073452075    0.020364563 
   53000     4000  6.4549524e-05              0    0.073452075    0.020839639 
   54000     4000  9.3668346e-05              0    0.073452075    0.021230872 
   55000     4000  0.00014359993              0    0.073452075    0.021595733 
   56000     4000  0.00021039394              0    0.073452075    0.022090701 
   57000     4000  0.00029916325              0    0.073452075    0.022701194 
   58000     4000  0.00041610716              0    0.073452075    0.023252478 
   59000     4000  0.00054108468              0    0.073452075     0.02373855 
   60000     3984  0.00049721903  0.00058038013    0.073452075    0.024138487 
   61000     3973  0.00049186429   0.0010009894    0.073452075    0.024167696 
   61250     3970  0.00048687241   0.0010752506    0.073452075    0.024167696 
Loop time of 4.31282 on 2 procs for 11250 steps with 3970 atoms, finish time Fri Jun 12 15:51:03 2026


Pair  time (%) = 2.81624 (65.2993)
Neigh time (%) = 0.067705 (1.56986)
Comm  time (%) = 0.083787 (1.94274)
Outpt time (%) = 0.0001265 (0.00293312)
Other time (%) = 1.34496 (31.1851)

Nlocal:    1985 ave 1990 max 1980 min
Histogram: 1 0 0 0 0 0 0 0 0 1
Nghost:    385 ave 385 max 385 min
Histogram: 2 0 0 0 0 0 0 0 0 0
Neighs:    13456.5 ave 13503 max 13410 min
Histogram: 1 0 0 0 0 0 0 0 0 1

Total # of neighbors = 26913
Ave neighs/atom = 6.77909
Neighbor list builds = 54
Dangerous builds = 0
unfix	mvplug
run	${dischsteps}
run	163750
Setting up run at Fri Jun 12 15:51:03 2026

Memory usage per processor = 21.1374 Mbytes
    Step    Atoms         KinEng          ms[1]          ts[1]          ts[2] 
   61250     3970  0.00048687241   0.0010752506    0.073452075    0.024167696 
   62000     3965   0.0005239934   0.0013654407    0.073452075    0.024163083 
   63000     3951  0.00046398552   0.0018305755    0.073452075    0.024244424 
   64000     3939  0.00043214321   0.0022814607    0.073452075    0.024339382 
   65000     3933  0.00047141475   0.0024216638    0.073452075    0.024138519 
   66000     3923  0.00047677352   0.0027875797    0.073452075    0.024150163 
   67000     3916  0.00051340639   0.0030670615    0.073452075    0.024172704 
   68000     3909  0.00056998253   0.0033118017    0.073452075    0.024315156 
   69000     3900  0.00060536867   0.0036527598    0.073452075    0.024305285 
   70000     3889  0.00058644032   0.0040382434    0.073452075    0.024462942 
   71000     3880  0.00060979958   0.0043655641    0.073452075    0.024465934 
   72000     3874  0.00070181629   0.0046171589    0.073452075    0.024410108 
   73000     3863  0.00069006369   0.0050207456    0.073452075    0.024422495 
   74000     3853   0.0007132345   0.0053964453    0.073452075    0.024575765 
   75000     3845  0.00075663831   0.0057359388    0.073452075    0.024596838 
   76000     3829  0.00067769009      0.0062171    0.073452075    0.024583773 
   77000     3818  0.00066055679   0.0065673017    0.073452075    0.024468201 
   78000     3806  0.00063559941   0.0069756664    0.073452075    0.024751484 
   79000     3795  0.00061599188   0.0073787128    0.073452075     0.02458731 
   80000     3781  0.00053939602   0.0078862964    0.073452075    0.024590712 
   81000     3773  0.00054459328   0.0081764864    0.073452075    0.024460147 
   82000     3766  0.00057004166   0.0084378652    0.073452075    0.024445643 
   83000     3762  0.00064413206    0.008597636    0.073452075    0.024529347 
   84000     3754  0.00071440073   0.0088697229    0.073452075    0.024507631 
   85000     3743  0.00074104808   0.0092991917    0.073452075    0.024333295 
   86000     3730   0.0007096131   0.0098029217    0.073452075    0.024366417 
   87000     3720  0.00071484903    0.010178621    0.073452075    0.024492065 
   88000     3711  0.00070083193    0.010620803    0.073452075    0.024676046 
   89000     3695  0.00058778293    0.011129852    0.073452075    0.024604096 
   90000     3687  0.00059183049    0.011493378    0.073452075    0.024537659 
   91000     3674  0.00054137508    0.011973075    0.073452075    0.024711521 
   92000     3662  0.00049503848    0.012311104    0.073452075     0.02462722 
   93000     3651  0.00044888386    0.012705831    0.073452075    0.024564854 
   94000     3648  0.00052919065    0.012829396    0.073452075    0.024525072 
   95000     3636  0.00048505284    0.013242226    0.073452075    0.024284741 
   96000     3628  0.00047711968    0.013551443    0.073452075    0.024329609 
   97000     3620  0.00048632513    0.013798573    0.073452075    0.024367477 
   98000     3613  0.00049495441    0.014062881    0.073452075    0.024431923 
   99000     3607  0.00053042565    0.014249998    0.073452075     0.02460463 
  100000     3593  0.00044888206    0.014848481    0.073452075    0.024521312 
  101000     3583  0.00041036471    0.015162093    0.073452075    0.024407707 
  102000     3577  0.00045247718    0.015340891    0.073452075    0.024371903 
  103000     3574  0.00052661619    0.015453747    0.073452075    0.024256168 
  104000     3567  0.00057950736    0.015710661    0.073452075    0.024265885 
  105000     3558  0.00060800858    0.015984212    0.073452075    0.024271618 
  106000     3546  0.00058450943    0.016444881    0.073452075    0.024333098 
  107000     3535  0.00056534129    0.016801013    0.073452075    0.024465807 
  108000     3522  0.00053433362    0.017283099    0.073452075    0.024612732 
  109000     3513  0.00053296546    0.017545942    0.073452075    0.024237534 
  110000     3505  0.00053584757    0.017873803    0.073452075    0.024462842 
  111000     3494  0.00050709855    0.018260211    0.073452075     0.02443567 
  112000     3490  0.00057919789    0.018408733    0.073452075    0.024464196 
  113000     3478  0.00055864264    0.018840591    0.073452075    0.024518864 
  114000     3473  0.00063370505    0.019009606    0.073452075    0.024366726 
  115000     3459  0.00059262676    0.019515724    0.073452075    0.024447214 
  116000     3449  0.00057781319    0.019917847    0.073452075    0.024412766 
  117000     3440  0.00058827596    0.020245167    0.073452075    0.024554611 
  118000     3429  0.00056192074    0.020639894    0.073452075    0.024382849 
  119000     3423  0.00060644086     0.02089203    0.073452075    0.024596424 
  120000     3414  0.00061676254    0.021211031    0.073452075     0.02452427 
  121000     3406   0.0006422344    0.021546671    0.073452075    0.024620132 
  122000     3394  0.00057662144    0.021960966    0.073452075    0.024609256 
  123000     3384  0.00053458888    0.022353304    0.073452075    0.024600818 
  124000     3377  0.00056228168    0.022598044    0.073452075    0.024538455 
  125000     3368   0.0005767837    0.022908726    0.073452075    0.024362661 
  126000     3357  0.00055364921    0.023375326    0.073452075    0.024504538 
  127000     3349  0.00057707346    0.023673835    0.073452075    0.024429201 
  128000     3337  0.00051854662    0.024115477    0.073452075    0.024430769 
  129000     3328  0.00050808389    0.024491176    0.073452075    0.024607941 
  130000     3318  0.00047687649    0.024774512    0.073452075    0.024419181 
  131000     3312  0.00051685943    0.025000225    0.073452075    0.024333411 
  132000     3302  0.00048999414    0.025385708    0.073452075    0.024303553 
  133000     3295  0.00050654027    0.025647087    0.073452075    0.024374395 
  134000     3289  0.00056150933    0.025844913    0.073452075    0.024463127 
  135000     3280   0.0005614232    0.026193266    0.073452075    0.024444873 
  136000     3271  0.00058700105    0.026506337    0.073452075    0.024521854 
  137000     3259  0.00056325437     0.02689128    0.073452075    0.024512418 
  138000     3246  0.00052844649    0.027445238    0.073452075    0.024504566 
  139000     3238  0.00052298044    0.027688513    0.073452075     0.02443558 
  140000     3231  0.00056016903    0.027857528    0.073452075    0.024468746 
  141000     3222  0.00054977684    0.028268894    0.073452075    0.024454243 
  142000     3211  0.00050642304    0.028599143    0.073452075    0.024523975 
  143000     3204  0.00050793368    0.028919609    0.073452075    0.024536435 
  144000     3193  0.00044837811    0.029266498    0.073452075    0.024478331 
  145000     3185  0.00044158585    0.029592354    0.073452075    0.024333583 
  146000     3176  0.00040727555    0.029875689    0.073452075    0.024227866 
  147000     3168  0.00039542566    0.030159025    0.073452075    0.024424273 
  148000     3159  0.00036854674    0.030459923    0.073452075    0.024166525 
  149000     3152  0.00038330467     0.03068656    0.073452075    0.024100525 
  150000     3149  0.00046146332    0.030799417    0.073452075    0.024052656 
  151000     3143  0.00050410464    0.031078898    0.073452075    0.024088013 
  152000     3134  0.00049515922    0.031434106    0.073452075    0.024329201 
  153000     3118   0.0003959154    0.031981749    0.073452075    0.024172528 
  154000     3113  0.00044073839    0.032152228    0.073452075    0.024391055 
  155000     3105  0.00043820156    0.032507436    0.073452075    0.024435316 
  156000     3097  0.00044124904    0.032790771    0.073452075    0.024354444 
  157000     3091  0.00047698305    0.032951467    0.073452075    0.024186027 
  158000     3083   0.0004895712     0.03325976    0.073452075    0.024400467 
  159000     3076  0.00052436347    0.033511355    0.073452075    0.024193048 
  160000     3070  0.00057134097    0.033718964    0.073452075     0.02431116 
  161000     3065  0.00062112147    0.033965169    0.073452075    0.024281185 
  162000     3052  0.00054977141    0.034517278    0.073452075    0.024533385 
  163000     3037  0.00043172353    0.035003445    0.073452075    0.024344984 
  164000     3029  0.00042840879    0.035320058    0.073452075    0.024430402 
  165000     3022  0.00043583565    0.035592685    0.073452075    0.024430436 
  166000     3016  0.00043462753    0.035862383    0.073452075    0.024302782 
  167000     3010  0.00046854279    0.036039717    0.073452075    0.024495682 
  168000     3003  0.00048778937    0.036292776    0.073452075    0.024412671 
  169000     2995  0.00048713738     0.03659275    0.073452075    0.024343087 
  170000     2983  0.00046436486    0.036980082    0.073452075    0.024351769 
  171000     2974   0.0004559804    0.037317187    0.073452075    0.024500863 
  172000     2969  0.00050353219    0.037533116    0.073452075    0.024269756 
  173000     2963  0.00054516208    0.037720233    0.073452075    0.024221201 
  174000     2952  0.00051629587    0.038151167    0.073452075    0.024407482 
  175000     2941  0.00046424933    0.038617766    0.073452075    0.024467758 
  176000     2930  0.00039919475    0.039011569    0.073452075     0.02443648 
  177000     2927  0.00045814548    0.039142528    0.073452075    0.024311308 
  178000     2921  0.00048247925     0.03938488    0.073452075    0.024322229 
  179000     2913  0.00050245331     0.03966675    0.073452075    0.024420975 
  180000     2903  0.00048353856    0.040053158    0.073452075    0.024549012 
  181000     2898  0.00052647812    0.040223637    0.073452075    0.024309012 
  182000     2889  0.00052919798     0.04057199    0.073452075    0.024370666 
  183000     2880  0.00052892258    0.040880284    0.073452075    0.024369943 
  184000     2867  0.00044973683    0.041377159    0.073452075    0.024295811 
  185000     2856   0.0004179163    0.041762102    0.073452075    0.024402293 
  186000     2849  0.00042712553    0.042062076    0.073452075    0.024542881 
  187000     2844  0.00045221399     0.04219396    0.073452075    0.024525805 
  188000     2836  0.00045838158    0.042485615    0.073452075    0.024337066 
  189000     2828  0.00045602354    0.042784124    0.073452075    0.024230482 
  190000     2822  0.00049014915    0.043035719    0.073452075     0.02435225 
  191000     2812  0.00048093273    0.043346401    0.073452075    0.024308561 
  192000     2803  0.00046621994    0.043759231    0.073452075    0.024346657 
  193000     2791  0.00043625741    0.044152494    0.073452075    0.024360908 
  194000     2785  0.00045915305    0.044349395    0.073452075    0.024447433 
  195000     2780  0.00051113548    0.044537978    0.073452075    0.024337134 
  196000     2775  0.00057489932    0.044706992    0.073452075     0.02412759 
  197000     2768  0.00062344847    0.045015285    0.073452075    0.024304159 
  198000     2759  0.00064676304    0.045371417    0.073452075    0.024282775 
  199000     2748  0.00065350645     0.04575636    0.073452075    0.024537485 
  200000     2731  0.00054142989    0.046328962    0.073452075    0.024262416 
  201000     2724   0.0005752971    0.046647963    0.073452075    0.024449452 
  202000     2716  0.00059009101    0.046872211    0.073452075    0.024393277 
  203000     2703  0.00055281174    0.047376866    0.073452075      0.0244389 
  204000     2692  0.00055232513    0.047724678    0.073452075    0.024458217 
  205000     2683  0.00054836078    0.048079886    0.073452075    0.024549393 
  206000     2675  0.00057825309    0.048361757    0.073452075    0.024490624 
  207000     2667  0.00060884783    0.048645092    0.073452075    0.024342846 
  208000     2658  0.00063791608    0.048984586    0.073452075    0.024459446 
  209000     2647  0.00062783768    0.049372458    0.073452075    0.024506759 
  210000     2637  0.00062039209    0.049764796    0.073452075    0.024541448 
  211000     2626  0.00060533536    0.050147351    0.073452075    0.024342987 
  212000     2615    0.000586341    0.050569965    0.073452075    0.024352587 
  213000     2605  0.00057305809    0.051019926    0.073452075    0.024458403 
  214000     2597  0.00058771555    0.051227535    0.073452075     0.02445328 
  215000     2585  0.00053786251    0.051758612    0.073452075    0.024483169 
  216000     2576  0.00050362057     0.05215095    0.073452075    0.024483816 
  217000     2565  0.00044315071    0.052459244    0.073452075    0.024359127 
  218000     2557  0.00043432307    0.052742579    0.073452075    0.024423679 
  219000     2553  0.00048011573    0.052900885    0.073452075    0.024316477 
  220000     2543  0.00045604564    0.053266801    0.073452075    0.024024986 
  221000     2536  0.00048552468    0.053624398    0.073452075    0.024418741 
  222000     2527  0.00048704477    0.053896485    0.073452075    0.024381478 
  223000     2518  0.00049005377    0.054188139    0.073452075    0.024306626 
  224000     2512  0.00054302407     0.05442456    0.073452075    0.024473462 
  225000     2501  0.00054424911    0.054747415    0.073452075    0.024406212 
Loop time of 48.4971 on 2 procs for 163750 steps with 2501 atoms, finish time Fri Jun 12 15:51:52 2026


Pair  time (%) = 29.7067 (61.2546)
Neigh time (%) = 1.14138 (2.3535)
Comm  time (%) = 0.963264 (1.98623)
Outpt time (%) = 0.0142565 (0.0293966)
Other time (%) = 16.6715 (34.3763)

Nlocal:    1250.5 ave 1264 max 1237 min
Histogram: 1 0 0 0 0 0 0 0 0 1
Nghost:    203.5 ave 205 max 202 min
Histogram: 1 0 0 0 0 0 0 0 0 1
Neighs:    7729.5 ave 7915 max 7544 min
Histogram: 1 0 0 0 0 0 0 0 0 1

Total # of neighbors = 15459
Ave neighs/atom = 6.18113
Neighbor list builds = 1154
Dangerous builds = 0
variable mout equal f_ms[1]
print	"AUDIT discharge-end: crossed mass = ${mout} kg, atoms left = ${natoms}"
AUDIT discharge-end: crossed mass = 0.0547474151963291 kg, atoms left = 2501

write_dump all custom post/${TAG}_final.liggghts id type x y z vx vy vz omegax omegay omegaz radius
write_dump all custom post/ddfce9facbb7_s49979687_final.liggghts id type x y z vx vy vz omegax omegay omegaz radius
