LIGGGHTS (Version LIGGGHTS-PUBLIC 3.8.0, compiled 2026-06-11-14:52:41 by joshuamayo, git commit 3d5c00f20519e6bb6eb6756f51f1ad36564e649d)
# drawdown.in — Parameterized orifice-discharge (drawdown) flow test (Phase-9 probe).
#
# Fill the lifted-cylinder geometry over an annular floor whose orifice is
# blocked by a plug disk; settle; remove the plug; discharge through the
# orifice. Mass flow rate comes from fix massflow/mesh on a counting disk
# below the floor (delete_atoms keeps the shrink-wrapped domain bounded —
# the Phase-5 neighbor-grid lesson). The probe question is DISCRIMINATION
# along the Phase-8 friction valley, so no physical target is required yet.
#
# Inertial orifice flow is a genuinely different regime from the quasi-static
# heap and the slow-rolling drum — the two responses that proved degenerate
# for single spheres (results/phase9-drum/NOTES.md, M4).
#
# Run (from repo root):
#   mpirun -np 2 lmp_auto -in templates/drawdown.in \
#       -var TAG dev -var FRIC 0.4 -var ROLLFRIC 0.12 -var REST 0.5 -log log.dev
#
# Atom types: 1 = particles, 2 = walls (cylinder + floor + plug; matrix as aor.in).

# ---------------------------------------------------------------- variables
variable FRIC       index 0.40          # mu_s particle-particle  [calibration target]
variable FRICPW     index 0.40          # mu_s particle-wall      [calibration target]
variable ROLLFRIC   index 0.12          # mu_r particle-particle, epsd2 [target]
variable ROLLFRICPW index 0.12          # mu_r particle-wall, epsd2     [target]
variable REST       index 0.50          # restitution             [target, weak]
variable SEED       index 49979687      # insertion seed
variable TAG        index dev           # output label
variable NPART      index 4000          # particles inserted (the aor fill)
variable MESH       index templates/meshes/cylinder_r0.040_h0.100.stl
variable FLOORMESH  index templates/meshes/floor_annulus_r0.046_o0.011.stl
variable PLUGMESH   index templates/meshes/plug_disk_r0.0135.stl
variable CATCHMESH  index templates/meshes/catch_disk_r0.030.stl
variable YMOD       index 1.0e7         # softened Young's modulus [Pa]
variable DT         index 8.0e-6        # timestep [s]
variable GRAVZ      index -1.0          # gravity z sign (fault-injection knob)
variable SETTLET    index 0.4           # settle stage [s]
variable DISCHARGE  index 1.4           # discharge stage [s] (~full drain at D_o 22 mm)

# fixed (non-calibrated) material inputs
variable POIS       equal 0.25
variable RHO        equal 1400

variable settlesteps equal floor(v_SETTLET/v_DT+0.5)
variable opensteps   equal floor(0.09/v_DT+0.5)
variable dischsteps  equal floor(v_DISCHARGE/v_DT+0.5)-floor(0.09/v_DT+0.5)
variable dumpevery   equal 25000

# ---------------------------------------------------------------- setup
atom_style	granular
atom_modify	map array
boundary	m m m
newton		off
communicate	single vel yes
units		si

region		reg block -0.14 0.14 -0.14 0.14 -0.05 0.20 units box
create_box	2 reg
Created orthogonal box = (-0.14 -0.14 -0.05) to (0.14 0.14 0.2)
  1 by 2 by 1 MPI processor grid

neighbor	0.002 bin
neigh_modify	delay 0

# ---------------------------------------------------------------- material / contact model
fix 	m1 all property/global youngsModulus peratomtype ${YMOD} ${YMOD}
fix 	m1 all property/global youngsModulus peratomtype 1.0e7 ${YMOD}
fix 	m1 all property/global youngsModulus peratomtype 1.0e7 1.0e7
fix 	m2 all property/global poissonsRatio peratomtype ${POIS} ${POIS}
fix 	m2 all property/global poissonsRatio peratomtype 0.25 ${POIS}
fix 	m2 all property/global poissonsRatio peratomtype 0.25 0.25
fix 	m3 all property/global coefficientRestitution peratomtypepair 2 ${REST} ${REST} ${REST} ${REST}
fix 	m3 all property/global coefficientRestitution peratomtypepair 2 0.4414 ${REST} ${REST} ${REST}
fix 	m3 all property/global coefficientRestitution peratomtypepair 2 0.4414 0.4414 ${REST} ${REST}
fix 	m3 all property/global coefficientRestitution peratomtypepair 2 0.4414 0.4414 0.4414 ${REST}
fix 	m3 all property/global coefficientRestitution peratomtypepair 2 0.4414 0.4414 0.4414 0.4414
fix 	m4 all property/global coefficientFriction peratomtypepair 2 ${FRIC} ${FRICPW} ${FRICPW} ${FRICPW}
fix 	m4 all property/global coefficientFriction peratomtypepair 2 0.2955 ${FRICPW} ${FRICPW} ${FRICPW}
fix 	m4 all property/global coefficientFriction peratomtypepair 2 0.2955 0.2955 ${FRICPW} ${FRICPW}
fix 	m4 all property/global coefficientFriction peratomtypepair 2 0.2955 0.2955 0.2955 ${FRICPW}
fix 	m4 all property/global coefficientFriction peratomtypepair 2 0.2955 0.2955 0.2955 0.2955
fix 	m5 all property/global coefficientRollingFriction peratomtypepair 2 ${ROLLFRIC} ${ROLLFRICPW} ${ROLLFRICPW} ${ROLLFRICPW}
fix 	m5 all property/global coefficientRollingFriction peratomtypepair 2 0.1622 ${ROLLFRICPW} ${ROLLFRICPW} ${ROLLFRICPW}
fix 	m5 all property/global coefficientRollingFriction peratomtypepair 2 0.1622 0.1622 ${ROLLFRICPW} ${ROLLFRICPW}
fix 	m5 all property/global coefficientRollingFriction peratomtypepair 2 0.1622 0.1622 0.1622 ${ROLLFRICPW}
fix 	m5 all property/global coefficientRollingFriction peratomtypepair 2 0.1622 0.1622 0.1622 0.1622

pair_style gran model hertz tangential history rolling_friction epsd2
WARNING: 
	The contact model you specified is not located in any whitelist.
	Because of this the model will be run in an unoptimized version (increasing runtime by up to 20%).
	In order to optimize this model you have the following options:
		(i)  Run the genAutoExamplesWhitelist.sh script in your LIGGGHTS(R) source folder to automatically parse the input script
		(ii) Add the model combination by hand to your style_contact_model_user.whitelist that can be found in your LIGGGHTS(R) source folder
		(iii) Use the ENABLE_MODEL_* flag when building with cmake.
	If you perform one of the steps above LIGGGHTS(R) needs to be recompiled to generate the optimized code.

 (../contact_models.h:365)
pair_coeff	* *

timestep	${DT}
timestep	8.0e-6

fix		gravi all gravity 9.81 vector 0.0 0.0 ${GRAVZ}
fix		gravi all gravity 9.81 vector 0.0 0.0 -1.0

# cylinder side wall + annular floor + plug: ONE wall fix — LIGGGHTS 3.8
# supports a single wall/gran of style mesh, so the plug cannot get its own
# (first smoke run failed on exactly that). The orifice opens by MOVING the
# plug down out of the flow (fix move/mesh, the aor.in lift pattern) and
# parking it below the counting plane.
fix cyl   all mesh/surface file ${MESH} type 2
fix cyl   all mesh/surface file ../../../../../templates/meshes/cylinder_r0.040_h0.100.stl type 2
fix floor all mesh/surface file ${FLOORMESH} type 2
fix floor all mesh/surface file ../../../../../templates/meshes/floor_annulus_r0.046_o0.011.stl type 2
fix plug  all mesh/surface file ${PLUGMESH} type 2
fix plug  all mesh/surface file ../../../../../templates/meshes/plug_disk_r0.0135.stl type 2
fix statwall all wall/gran model hertz tangential history rolling_friction epsd2 mesh n_meshes 3 meshes cyl floor plug
WARNING: 
	The contact model you specified is not located in any whitelist.
	Because of this the model will be run in an unoptimized version (increasing runtime by up to 20%).
	In order to optimize this model you have the following options:
		(i)  Run the genAutoExamplesWhitelist.sh script in your LIGGGHTS(R) source folder to automatically parse the input script
		(ii) Add the model combination by hand to your style_contact_model_user.whitelist that can be found in your LIGGGHTS(R) source folder
		(iii) Use the ENABLE_MODEL_* flag when building with cmake.
	If you perform one of the steps above LIGGGHTS(R) needs to be recompiled to generate the optimized code.

 (../contact_models.h:365)

# counting plane below the orifice — NOT a wall; massflow counts + deletes
fix catch all mesh/surface file ${CATCHMESH} type 2
fix catch all mesh/surface file ../../../../../templates/meshes/catch_disk_r0.030.stl type 2
fix ms all massflow/mesh mesh catch vec_side 0. 0. -1. count once delete_atoms yes

# ---------------------------------------------------------------- particles (fixed PSD)
fix	pts1 all particletemplate/sphere 15485863 atom_type 1 density constant ${RHO} radius constant 0.0017
fix	pts1 all particletemplate/sphere 15485863 atom_type 1 density constant 1400 radius constant 0.0017
fix	pts2 all particletemplate/sphere 15485867 atom_type 1 density constant ${RHO} radius constant 0.00185
fix	pts2 all particletemplate/sphere 15485867 atom_type 1 density constant 1400 radius constant 0.00185
fix	pts3 all particletemplate/sphere 32452843 atom_type 1 density constant ${RHO} radius constant 0.0020
fix	pts3 all particletemplate/sphere 32452843 atom_type 1 density constant 1400 radius constant 0.0020
fix	pdd1 all particledistribution/discrete 32452867 3 pts1 0.25 pts2 0.50 pts3 0.25

region	bc cylinder z 0. 0. 0.0375 0.004 0.085 units box
fix	ins all insert/pack seed ${SEED} distributiontemplate pdd1 vel constant 0. 0. -0.3 		insert_every once overlapcheck yes all_in yes particles_in_region ${NPART} region bc
fix	ins all insert/pack seed 67867967 distributiontemplate pdd1 vel constant 0. 0. -0.3 		insert_every once overlapcheck yes all_in yes particles_in_region ${NPART} region bc
fix	ins all insert/pack seed 67867967 distributiontemplate pdd1 vel constant 0. 0. -0.3 		insert_every once overlapcheck yes all_in yes particles_in_region 4000 region bc

fix	integr all nve/sphere

# nevery 1000 to match the fine thermo cadence (thermo errors out when a
# referenced fix computes on an incompatible schedule)
fix	ts all check/timestep/gran 1000 0.1 0.1

# ---------------------------------------------------------------- output
# fine-grained thermo (8 ms) is the measurement: f_ms[1] = crossed mass [kg]
compute	rke all erotate/sphere
thermo_style	custom step atoms ke f_ms[1] f_ts[1] f_ts[2]
thermo		1000
thermo_modify	lost ignore norm no
dump	dmp all custom ${dumpevery} post/${TAG}_*.liggghts id type x y z vx vy vz omegax omegay omegaz radius
dump	dmp all custom 25000 post/${TAG}_*.liggghts id type x y z vx vy vz omegax omegay omegaz radius
dump	dmp all custom 25000 post/dd4e527aef46_s67867967_*.liggghts id type x y z vx vy vz omegax omegay omegaz radius

# ---------------------------------------------------------------- stages
# stage 1 — fill and settle over the plugged orifice
run	${settlesteps}
run	50000
Setting up run at Fri Jun 12 15:44:31 2026

INFO: Particle insertion ins: inserting every 0 steps
Memory usage per processor = 15.7366 Mbytes
    Step    Atoms         KinEng          ms[1]          ts[1]          ts[2] 
       0        0              0              0              0              0 
INFO: Particle insertion ins: inserted 4000 particle templates (mass 1.456074e-01) at step 1
 - a total of 4000 particle templates (mass 1.456074e-01) inserted so far.
    1000     4000    0.010426758              0    0.073452075    0.020600207 
    2000     4000     0.01404756              0    0.073452075     0.02155897 
    3000     4000     0.01711407              0    0.073452075    0.022080444 
    4000     4000    0.019654104              0    0.073452075    0.022692838 
    5000     4000    0.020738405              0    0.073452075    0.023290942 
    6000     4000    0.019668141              0    0.073452075    0.023767729 
    7000     4000    0.015857944              0    0.073452075    0.024273772 
    8000     4000   0.0085467217              0    0.073452075    0.024651254 
    9000     4000   0.0012025235              0    0.073452075    0.023907537 
   10000     4000  0.00023775729              0    0.073452075    0.021317725 
   11000     4000  9.4846664e-05              0    0.073452075    0.021523734 
   12000     4000  4.1738147e-05              0    0.073452075     0.02002245 
   13000     4000  2.1536893e-05              0    0.073452075    0.018529333 
   14000     4000  1.0657124e-05              0    0.073452075    0.017629687 
   15000     4000  6.2840254e-06              0    0.073452075    0.017953128 
   16000     4000  5.3713802e-06              0    0.073452075     0.01816777 
   17000     4000  2.5361229e-06              0    0.073452075    0.016543747 
   18000     4000  1.8954075e-06              0    0.073452075    0.016267337 
   19000     4000  1.4625099e-06              0    0.073452075    0.016808297 
   20000     4000  1.6452932e-06              0    0.073452075     0.01569398 
   21000     4000  1.5711245e-06              0    0.073452075    0.015939121 
   22000     4000  8.2811813e-07              0    0.073452075    0.015485685 
   23000     4000  5.6070612e-07              0    0.073452075    0.016260715 
   24000     4000  3.1297627e-07              0    0.073452075    0.014610972 
   25000     4000  1.5969026e-07              0    0.073452075    0.014617288 
   26000     4000  5.4366129e-08              0    0.073452075    0.012077377 
   27000     4000  7.2690178e-08              0    0.073452075    0.012966952 
   28000     4000  9.8013875e-08              0    0.073452075       0.013884 
   29000     4000   7.436932e-08              0    0.073452075    0.012885542 
   30000     4000  5.9872324e-08              0    0.073452075    0.012919545 
   31000     4000  6.6827836e-08              0    0.073452075    0.013382349 
   32000     4000   7.425596e-08              0    0.073452075    0.014085931 
   33000     4000  1.2310105e-08              0    0.073452075    0.011879896 
   34000     4000  6.3377339e-10              0    0.073452075   0.0068470678 
   35000     4000  4.2089135e-10              0    0.073452075   0.0077997682 
   36000     4000   1.784209e-10              0    0.073452075   0.0054687373 
   37000     4000  8.1213155e-11              0    0.073452075   0.0049370884 
   38000     4000  8.8310966e-11              0    0.073452075    0.005158835 
   39000     4000   3.568817e-11              0    0.073452075   0.0051950401 
   40000     4000  5.6617247e-11              0    0.073452075   0.0048517277 
   41000     4000  2.8347701e-11              0    0.073452075   0.0053618932 
   42000     4000  4.3549942e-11              0    0.073452075   0.0049500167 
   43000     4000  1.6566289e-11              0    0.073452075   0.0052415089 
   44000     4000   2.827621e-11              0    0.073452075   0.0047560859 
   45000     4000   1.500912e-11              0    0.073452075   0.0048429563 
   46000     4000  2.3235339e-11              0    0.073452075   0.0051388962 
   47000     4000  9.6393398e-12              0    0.073452075   0.0047622946 
   48000     4000  1.7573598e-11              0    0.073452075   0.0051957967 
   49000     4000  6.1874596e-12              0    0.073452075   0.0044284432 
   50000     4000  1.2859959e-11              0    0.073452075   0.0049853197 
Loop time of 30.2778 on 2 procs for 50000 steps with 4000 atoms, finish time Fri Jun 12 15:45:01 2026


Pair  time (%) = 17.4432 (57.6106)
Neigh time (%) = 0.115117 (0.380203)
Comm  time (%) = 0.569018 (1.87933)
Outpt time (%) = 0.0099815 (0.0329664)
Other time (%) = 12.1405 (40.0969)

Nlocal:    2000 ave 2006 max 1994 min
Histogram: 1 0 0 0 0 0 0 0 0 1
Nghost:    382 ave 383 max 381 min
Histogram: 1 0 0 0 0 0 0 0 0 1
Neighs:    13967.5 ave 13975 max 13960 min
Histogram: 1 0 0 0 0 0 0 0 0 1

Total # of neighbors = 27935
Ave neighs/atom = 6.98375
Neighbor list builds = 76
Dangerous builds = 0
variable natoms equal atoms
print	"AUDIT settle: atoms = ${natoms} (target ${NPART})"
AUDIT settle: atoms = 4000 (target 4000)

# stage 2 — open the orifice: slide the plug down at 0.5 m/s for 0.09 s
# (parks at z ~ -0.044, below the counting plane), then discharge
fix	mvplug all move/mesh mesh plug linear 0. 0. -0.5
run	${opensteps}
run	11250
Setting up run at Fri Jun 12 15:45:01 2026

Memory usage per processor = 21.1371 Mbytes
    Step    Atoms         KinEng          ms[1]          ts[1]          ts[2] 
   50000     4000  1.2859959e-11              0    0.073452075   0.0049853197 
   51000     4000   3.508941e-05              0    0.073452075    0.019975747 
   52000     4000  5.9026689e-05              0    0.073452075    0.020554017 
   53000     4000  6.2551585e-05              0    0.073452075    0.020962178 
   54000     4000  9.0385779e-05              0    0.073452075    0.021343523 
   55000     4000  0.00013860215              0    0.073452075    0.021701398 
   56000     4000  0.00020411819              0    0.073452075    0.022282693 
   57000     4000  0.00028400985              0    0.073452075    0.022874007 
   58000     4000  0.00039056817              0    0.073452075    0.023409938 
   59000     4000  0.00051903043              0    0.073452075    0.023900928 
   60000     3984  0.00047828943  0.00059494194    0.073452075    0.024156001 
   61000     3972  0.00043030998  0.00099706402    0.073452075    0.024015115 
   61250     3971  0.00044923272   0.0010341946    0.073452075    0.024015115 
Loop time of 7.3971 on 2 procs for 11250 steps with 3971 atoms, finish time Fri Jun 12 15:45:08 2026


Pair  time (%) = 4.37415 (59.1332)
Neigh time (%) = 0.0855845 (1.157)
Comm  time (%) = 0.128755 (1.74061)
Outpt time (%) = 0.0001735 (0.00234551)
Other time (%) = 2.80845 (37.9668)

Nlocal:    1985.5 ave 1991 max 1980 min
Histogram: 1 0 0 0 0 0 0 0 0 1
Nghost:    387 ave 387 max 387 min
Histogram: 2 0 0 0 0 0 0 0 0 0
Neighs:    13619.5 ave 13630 max 13609 min
Histogram: 1 0 0 0 0 0 0 0 0 1

Total # of neighbors = 27239
Ave neighs/atom = 6.85948
Neighbor list builds = 55
Dangerous builds = 0
unfix	mvplug
run	${dischsteps}
run	163750
Setting up run at Fri Jun 12 15:45:08 2026

Memory usage per processor = 21.137 Mbytes
    Step    Atoms         KinEng          ms[1]          ts[1]          ts[2] 
   61250     3971  0.00044923272   0.0010341946    0.073452075    0.024015115 
   62000     3963  0.00042397925    0.001381083    0.073452075     0.02396302 
   63000     3960  0.00051193263   0.0014553442    0.073452075    0.024041141 
   64000     3949   0.0005050166   0.0018500713    0.073452075    0.024106074 
   65000     3940  0.00052630587   0.0021788566    0.073452075    0.024181742 
   66000     3932  0.00055690144   0.0024788305    0.073452075    0.024211677 
   67000     3920  0.00054341454   0.0029864141    0.073452075    0.024357623 
   68000     3910  0.00056706083   0.0033327622    0.073452075    0.024451114 
   69000     3901  0.00057089069   0.0035872863    0.073452075    0.024233493 
   70000     3894  0.00062026755   0.0038774764    0.073452075    0.024325634 
   71000     3882  0.00058039869   0.0043396101    0.073452075    0.024502115 
   72000     3872  0.00056389998   0.0046864985    0.073452075    0.024556354 
   73000     3863  0.00057095297   0.0050411659    0.073452075    0.024438072 
   74000     3849  0.00050666551   0.0054828075    0.073452075    0.024480926 
   75000     3838  0.00049647682   0.0058511123    0.073452075    0.024316735 
   76000     3828  0.00048771458   0.0062057797    0.073452075    0.024509164 
   77000     3818  0.00046636283    0.006570231    0.073452075    0.024543129 
   78000     3814  0.00053816446     0.00674071    0.073452075    0.024256089 
   79000     3808  0.00058142239   0.0070035533    0.073452075    0.024273432 
   80000     3801  0.00062480228   0.0072278015    0.073452075    0.024302776 
   81000     3788   0.0005975668    0.007687006    0.073452075    0.024334489 
   82000     3776  0.00057831361   0.0081013009    0.073452075    0.024305318 
   83000     3769  0.00063582671   0.0084467247    0.073452075    0.024347602 
   84000     3761  0.00068809729   0.0086709728    0.073452075    0.024368158 
   85000     3748  0.00066362444   0.0091399612    0.073452075    0.024462076 
   86000     3734  0.00058783399    0.009658253    0.073452075    0.024574318 
   87000     3725  0.00056712485    0.010060375    0.073452075    0.024451775 
   88000     3715  0.00053449858    0.010400409    0.073452075    0.024549595 
   89000     3702  0.00047997255    0.010822483    0.073452075    0.024503249 
   90000     3695  0.00050366419    0.011093645    0.073452075    0.024332159 
   91000     3686  0.00050261074    0.011449777    0.073452075    0.024581927 
   92000     3680  0.00052576049    0.011682345    0.073452075    0.024537103 
   93000     3670  0.00052883282    0.011984708    0.073452075    0.024413582 
   94000     3662  0.00053169961    0.012284681    0.073452075    0.024535559 
   95000     3654  0.00050926603    0.012641354    0.073452075    0.024398139 
   96000     3647  0.00056421103    0.012855818    0.073452075    0.024352254 
   97000     3639  0.00056753182    0.013173895    0.073452075    0.024255179 
   98000     3631  0.00058890346     0.01346555    0.073452075    0.024334486 
   99000     3621   0.0005992227    0.013898872    0.073452075    0.024502752 
  100000     3608  0.00055946222    0.014310238    0.073452075    0.024349893 
  101000     3598  0.00054076355    0.014674689    0.073452075    0.024348486 
  102000     3589  0.00054815195    0.015022502    0.073452075    0.024546236 
  103000     3579  0.00056016373    0.015333184    0.073452075    0.024188939 
  104000     3572  0.00060682696    0.015615055    0.073452075    0.024307933 
  105000     3561  0.00059586163    0.015999074    0.073452075     0.02430458 
  106000     3549  0.00055165302    0.016486165    0.073452075    0.024386819 
  107000     3542  0.00058127849    0.016729441    0.073452075    0.024397177 
  108000     3530  0.00056090263     0.01714466    0.073452075    0.024330586 
  109000     3517  0.00052052324    0.017540312    0.073452075    0.024465269 
  110000     3510  0.00056370124    0.017830502    0.073452075    0.024446822 
  111000     3497  0.00054388629    0.018262359    0.073452075    0.024415241 
  112000     3488  0.00057764399    0.018601853    0.073452075    0.024564538 
  113000     3477   0.0005730937     0.01895945    0.073452075    0.024397386 
  114000     3466  0.00055318711    0.019399627    0.073452075    0.024316277 
  115000     3458  0.00058223056    0.019644367    0.073452075    0.024489689 
  116000     3452   0.0006329203    0.019878399    0.073452075    0.024252485 
  117000     3445  0.00070082179    0.020168589    0.073452075    0.024331771 
  118000     3433  0.00072843099    0.020592127    0.073452075    0.024401618 
  119000     3424  0.00078535994    0.020967827    0.073452075    0.024419193 
  120000     3407  0.00067377961    0.021538964    0.073452075    0.024652161 
  121000     3395  0.00064753142    0.021970821    0.073452075     0.02458216 
  122000     3386   0.0006388227    0.022296677    0.073452075    0.024516493 
  123000     3375  0.00064224463    0.022673302    0.073452075    0.024538047 
  124000     3362  0.00061767695    0.023117332    0.073452075    0.024371172 
  125000     3347  0.00056181029    0.023632695    0.073452075    0.024431641 
  126000     3337  0.00052865806    0.024034817    0.073452075    0.024381854 
  127000     3330  0.00055884369    0.024287876    0.073452075    0.024417415 
  128000     3323  0.00059347825      0.0245424    0.073452075    0.024400323 
  129000     3314  0.00059051705    0.024908316    0.073452075    0.024406446 
  130000     3300  0.00051656292    0.025406656    0.073452075     0.02428914 
  131000     3286  0.00044165122    0.025931803    0.073452075    0.024508049 
  132000     3279  0.00046158395    0.026251344    0.073452075    0.024537253 
  133000     3273  0.00047904484     0.02640965    0.073452075    0.024486608 
  134000     3268  0.00052199271    0.026671569    0.073452075     0.02449154 
  135000     3262  0.00057214143    0.026832265    0.073452075    0.024385517 
  136000     3250  0.00054235105    0.027292009    0.073452075    0.024192212 
  137000     3241  0.00053940198    0.027648682    0.073452075    0.024373407 
  138000     3232   0.0005410153     0.02799557    0.073452075    0.024376124 
  139000     3223  0.00055617791    0.028334139    0.073452075    0.024321011 
  140000     3215  0.00057982589    0.028643897    0.073452075     0.02430098 
  141000     3208  0.00063366379    0.028880318    0.073452075    0.024314932 
  142000     3200  0.00067046938    0.029180292    0.073452075    0.024395894 
  143000     3187  0.00066685269    0.029667383    0.073452075    0.024546993 
  144000     3176  0.00065348273    0.030081678    0.073452075    0.024145672 
  145000     3168  0.00069576653    0.030512612    0.073452075    0.024515239 
  146000     3157  0.00070561973    0.030821829    0.073452075     0.02451205 
  147000     3140  0.00063397417    0.031430096    0.073452075    0.024510438 
  148000     3131   0.0006478974    0.031767201    0.073452075    0.024423967 
  149000     3122  0.00066032107    0.032186886    0.073452075      0.0244177 
  150000     3111  0.00065925074    0.032588468    0.073452075    0.024559269 
  151000     3101  0.00067087569    0.032965632    0.073452075     0.02435731 
  152000     3088  0.00062708535    0.033426301    0.073452075    0.024498909 
  153000     3078  0.00063095178    0.033800536    0.073452075     0.02459521 
  154000     3068  0.00062500357    0.034108829    0.073452075    0.024498694 
  155000     3055   0.0005847687    0.034605705    0.073452075     0.02455771 
  156000     3044  0.00056603303    0.035065449    0.073452075    0.024586529 
  157000     3038  0.00064247554    0.035254032    0.073452075    0.024418563 
  158000     3029  0.00068990257    0.035556394    0.073452075    0.024374145 
  159000     3016  0.00067947246     0.03608447    0.073452075    0.024378688 
  160000     3003  0.00064396019    0.036561778    0.073452075    0.024519302 
  161000     2990  0.00059824046    0.036973143    0.073452075    0.024435563 
  162000     2978  0.00056351466    0.037414785    0.073452075    0.024454362 
  163000     2971  0.00059218697    0.037649741    0.073452075    0.024353114 
  164000     2961  0.00058039576    0.038060183    0.073452075    0.024624379 
  165000     2954  0.00063286754    0.038288284    0.073452075    0.024405814 
  166000     2945  0.00064720226    0.038626854    0.073452075    0.024523767 
  167000     2935  0.00067349839    0.039038219    0.073452075    0.024436774 
  168000     2924  0.00069966406    0.039402671    0.073452075    0.024430857 
  169000     2912  0.00068689906    0.039907325    0.073452075    0.024363957 
  170000     2897  0.00063706272    0.040386097    0.073452075    0.024406271 
  171000     2883  0.00059696673    0.040877967    0.073452075    0.024390005 
  172000     2873  0.00058536582    0.041205287    0.073452075    0.024312891 
  173000     2865  0.00059177418    0.041571743    0.073452075    0.024393952 
  174000     2855  0.00060772958    0.041865787    0.073452075    0.024451568 
  175000     2848  0.00065117276    0.042175545    0.073452075    0.024408336 
  176000     2834  0.00060051418    0.042643068    0.073452075    0.024369361 
  177000     2821   0.0005357684    0.043166366    0.073452075    0.024346117 
  178000     2814   0.0005503965    0.043455632    0.073452075    0.024263136 
  179000     2806  0.00057118392    0.043773709    0.073452075    0.024356977 
  180000     2795  0.00057657242    0.044148868    0.073452075    0.024313993 
  181000     2787  0.00061822985    0.044496681    0.073452075    0.024316426 
  182000     2776  0.00060513498    0.044805899    0.073452075    0.024353902 
  183000     2767  0.00062186726    0.045180134    0.073452075    0.024368543 
  184000     2756  0.00061259374    0.045601283    0.073452075    0.024343425 
  185000     2743  0.00057122961     0.04604978    0.073452075    0.024451042 
  186000     2732  0.00054207006    0.046444507    0.073452075    0.024318363 
  187000     2724  0.00057054872    0.046745945    0.073452075    0.024218344 
  188000     2717  0.00062162242    0.047064022    0.073452075    0.024334586 
  189000     2706   0.0006146781    0.047483707    0.073452075    0.024433021 
  190000     2696  0.00064502237    0.047814882    0.073452075    0.024313601 
  191000     2681  0.00061000853    0.048294578    0.073452075    0.024448459 
  192000     2670  0.00059502852    0.048705944    0.073452075    0.024362097 
  193000     2657  0.00057326017     0.04919396    0.073452075    0.024137115 
  194000     2646  0.00058585224    0.049523669    0.073452075    0.024366393 
  195000     2638  0.00062564269    0.049860774    0.073452075    0.024345385 
  196000     2627  0.00060773924    0.050244793    0.073452075    0.024373382 
  197000     2616  0.00061737212    0.050648764    0.073452075    0.024481312 
  198000     2607  0.00064066168    0.050958521    0.073452075    0.024308738 
  199000     2594  0.00058946853    0.051480354    0.073452075    0.024453357 
  200000     2584  0.00057616442     0.05184627    0.073452075    0.024468589 
  201000     2575  0.00058824383    0.052165272    0.073452075    0.024542941 
  202000     2567   0.0005971091    0.052520479    0.073452075    0.024414188 
  203000     2555  0.00056171703     0.05297044    0.073452075    0.024599646 
  204000     2549  0.00060757977    0.053241603    0.073452075     0.02446772 
  205000     2535  0.00054906482    0.053690099    0.073452075    0.024380911 
  206000     2527  0.00055537961    0.054035523    0.073452075    0.024541136 
  207000     2519   0.0005627238    0.054326253    0.073452075    0.024351666 
  208000     2511  0.00059206227      0.0546384    0.073452075    0.024447948 
  209000     2501   0.0005864804    0.054986753    0.073452075    0.024362286 
  210000     2484  0.00048301031    0.055605728    0.073452075    0.024439879 
  211000     2478   0.0005093829    0.055850468    0.073452075     0.02432726 
  212000     2471  0.00051102666    0.056113312    0.073452075    0.024323137 
  213000     2457  0.00043198995    0.056589155    0.073452075    0.024244579 
  214000     2447  0.00039411768    0.056945287    0.073452075    0.024269208 
  215000     2439  0.00035993683    0.057271683    0.073452075    0.024290459 
  216000     2436  0.00042000673    0.057384539    0.073452075    0.024163048 
  217000     2431  0.00046277091    0.057571657    0.073452075    0.024373377 
  218000     2423  0.00045037277    0.057891199    0.073452075    0.024380765 
  219000     2417  0.00048829057    0.058113982    0.073452075     0.02429569 
  220000     2408  0.00047463148    0.058470114    0.073452075    0.024400288 
  221000     2401  0.00050598527    0.058724638    0.073452075    0.024328024 
  222000     2390  0.00045649339    0.059118441    0.073452075    0.024395425 
  223000     2381  0.00043537437    0.059448691    0.073452075    0.024491613 
  224000     2373  0.00043527152    0.059729097    0.073452075    0.024139661 
  225000     2364  0.00042506727    0.060075445    0.073452075    0.024348319 
Loop time of 85.9289 on 2 procs for 163750 steps with 2364 atoms, finish time Fri Jun 12 15:46:34 2026


Pair  time (%) = 47.3168 (55.065)
Neigh time (%) = 1.43178 (1.66623)
Comm  time (%) = 1.57337 (1.83101)
Outpt time (%) = 0.030687 (0.0357121)
Other time (%) = 35.5763 (41.402)

Nlocal:    1182 ave 1190 max 1174 min
Histogram: 1 0 0 0 0 0 0 0 0 1
Nghost:    192 ave 193 max 191 min
Histogram: 1 0 0 0 0 0 0 0 0 1
Neighs:    7325.5 ave 7426 max 7225 min
Histogram: 1 0 0 0 0 0 0 0 0 1

Total # of neighbors = 14651
Ave neighs/atom = 6.19755
Neighbor list builds = 1152
Dangerous builds = 0
variable mout equal f_ms[1]
print	"AUDIT discharge-end: crossed mass = ${mout} kg, atoms left = ${natoms}"
AUDIT discharge-end: crossed mass = 0.0600754453338773 kg, atoms left = 2364

write_dump all custom post/${TAG}_final.liggghts id type x y z vx vy vz omegax omegay omegaz radius
write_dump all custom post/dd4e527aef46_s67867967_final.liggghts id type x y z vx vy vz omegax omegay omegaz radius
