LIGGGHTS (Version LIGGGHTS-PUBLIC 3.8.0, compiled 2026-06-11-14:52:41 by joshuamayo, git commit 3d5c00f20519e6bb6eb6756f51f1ad36564e649d)
Created orthogonal box = (-0.14 -0.14 0) to (0.14 0.14 0.2)
  1 by 2 by 1 MPI processor grid
WARNING: 
	The contact model you specified is not located in any whitelist.
	Because of this the model will be run in an unoptimized version (increasing runtime by up to 20%).
	In order to optimize this model you have the following options:
		(i)  Run the genAutoExamplesWhitelist.sh script in your LIGGGHTS(R) source folder to automatically parse the input script
		(ii) Add the model combination by hand to your style_contact_model_user.whitelist that can be found in your LIGGGHTS(R) source folder
		(iii) Use the ENABLE_MODEL_* flag when building with cmake.
	If you perform one of the steps above LIGGGHTS(R) needs to be recompiled to generate the optimized code.

 (../contact_models.h:365)
WARNING: 
	The contact model you specified is not located in any whitelist.
	Because of this the model will be run in an unoptimized version (increasing runtime by up to 20%).
	In order to optimize this model you have the following options:
		(i)  Run the genAutoExamplesWhitelist.sh script in your LIGGGHTS(R) source folder to automatically parse the input script
		(ii) Add the model combination by hand to your style_contact_model_user.whitelist that can be found in your LIGGGHTS(R) source folder
		(iii) Use the ENABLE_MODEL_* flag when building with cmake.
	If you perform one of the steps above LIGGGHTS(R) needs to be recompiled to generate the optimized code.

 (../contact_models.h:365)
WARNING: 
	The contact model you specified is not located in any whitelist.
	Because of this the model will be run in an unoptimized version (increasing runtime by up to 20%).
	In order to optimize this model you have the following options:
		(i)  Run the genAutoExamplesWhitelist.sh script in your LIGGGHTS(R) source folder to automatically parse the input script
		(ii) Add the model combination by hand to your style_contact_model_user.whitelist that can be found in your LIGGGHTS(R) source folder
		(iii) Use the ENABLE_MODEL_* flag when building with cmake.
	If you perform one of the steps above LIGGGHTS(R) needs to be recompiled to generate the optimized code.

 (../contact_models.h:365)
WARNING: 
	The contact model you specified is not located in any whitelist.
	Because of this the model will be run in an unoptimized version (increasing runtime by up to 20%).
	In order to optimize this model you have the following options:
		(i)  Run the genAutoExamplesWhitelist.sh script in your LIGGGHTS(R) source folder to automatically parse the input script
		(ii) Add the model combination by hand to your style_contact_model_user.whitelist that can be found in your LIGGGHTS(R) source folder
		(iii) Use the ENABLE_MODEL_* flag when building with cmake.
	If you perform one of the steps above LIGGGHTS(R) needs to be recompiled to generate the optimized code.

 (../contact_models.h:365)
WARNING: 
	The contact model you specified is not located in any whitelist.
	Because of this the model will be run in an unoptimized version (increasing runtime by up to 20%).
	In order to optimize this model you have the following options:
		(i)  Run the genAutoExamplesWhitelist.sh script in your LIGGGHTS(R) source folder to automatically parse the input script
		(ii) Add the model combination by hand to your style_contact_model_user.whitelist that can be found in your LIGGGHTS(R) source folder
		(iii) Use the ENABLE_MODEL_* flag when building with cmake.
	If you perform one of the steps above LIGGGHTS(R) needs to be recompiled to generate the optimized code.

 (../contact_models.h:365)
WARNING: 
	The contact model you specified is not located in any whitelist.
	Because of this the model will be run in an unoptimized version (increasing runtime by up to 20%).
	In order to optimize this model you have the following options:
		(i)  Run the genAutoExamplesWhitelist.sh script in your LIGGGHTS(R) source folder to automatically parse the input script
		(ii) Add the model combination by hand to your style_contact_model_user.whitelist that can be found in your LIGGGHTS(R) source folder
		(iii) Use the ENABLE_MODEL_* flag when building with cmake.
	If you perform one of the steps above LIGGGHTS(R) needs to be recompiled to generate the optimized code.

 (../contact_models.h:365)

Reading STL file '../../../templates/meshes/cylinder_r0.040_h0.100.stl' (mesh processing step 1/3) 
WARNING: 
	The contact model you specified is not located in any whitelist.
	Because of this the model will be run in an unoptimized version (increasing runtime by up to 20%).
	In order to optimize this model you have the following options:
		(i)  Run the genAutoExamplesWhitelist.sh script in your LIGGGHTS(R) source folder to automatically parse the input script
		(ii) Add the model combination by hand to your style_contact_model_user.whitelist that can be found in your LIGGGHTS(R) source folder
		(iii) Use the ENABLE_MODEL_* flag when building with cmake.
	If you perform one of the steps above LIGGGHTS(R) needs to be recompiled to generate the optimized code.

 (../contact_models.h:365)
Fix particledistribution/discrete (id pdd1): distribution based on mass%:
    pts1: d=3.400000e-03 (max. bounding sphere) mass%=25.000000%
    pts2: d=3.700000e-03 (max. bounding sphere) mass%=50.000000%
    pts3: d=4.000000e-03 (max. bounding sphere) mass%=25.000000%
Fix particledistribution/discrete (id pdd1): distribution based on number%:
    pts1: d=3.400000e-03 (max. bounding sphere) number%=31.585425%
    pts2: d=3.700000e-03 (max. bounding sphere) number%=49.017177%
    pts3: d=4.000000e-03 (max. bounding sphere) number%=19.397399%
Setting up run at Thu Jun 11 20:31:51 2026

Import and parallelization of mesh cyl containing 96 triangle(s) successful
INFO: Resetting random generator for region bc
INFO: Particle insertion ins: inserting every 0 steps
Memory usage per processor = 10.4417 Mbytes
    Step    Atoms         KinEng            rke          ts[1]          ts[2] 
       0        0              0              0              0              0 
insertion: proc 0 at 0 %
insertion: proc 1 at 0 %
insertion: proc 0 at 10 %
insertion: proc 1 at 10 %
insertion: proc 0 at 20 %
insertion: proc 1 at 20 %
insertion: proc 0 at 30 %
insertion: proc 1 at 30 %
insertion: proc 1 at 40 %
insertion: proc 0 at 40 %
insertion: proc 1 at 50 %
insertion: proc 0 at 50 %
insertion: proc 1 at 60 %
insertion: proc 0 at 60 %
insertion: proc 0 at 70 %
insertion: proc 1 at 70 %
insertion: proc 0 at 80 %
insertion: proc 1 at 80 %
insertion: proc 0 at 90 %
insertion: proc 1 at 90 %
INFO: Particle insertion ins: inserted 4000 particle templates (mass 1.456074e-01) at step 1
 - a total of 4000 particle templates (mass 1.456074e-01) inserted so far.
    2000     4000    0.013647409  5.3836822e-05    0.073452075     0.02144416 
    4000     4000     0.01898789    0.000155094    0.073452075    0.022730468 
    6000     4000    0.018670941  0.00027387141    0.073452075     0.02387016 
    8000     4000   0.0063209371  0.00037728073    0.073452075    0.024873353 
   10000     4000  0.00026546552   8.362819e-05    0.073452075    0.020229153 
   12000     4000  5.0373956e-05  2.1755101e-05    0.073452075    0.019216222 
   14000     4000  1.5043094e-05   8.788767e-06    0.073452075    0.018888821 
   16000     4000  7.6574052e-06  4.1072829e-06    0.073452075    0.017610821 
   18000     4000   3.673585e-06  2.2110261e-06    0.073452075    0.017751471 
   20000     4000  1.4080076e-06  1.2154677e-06    0.073452075    0.015577174 
   22000     4000  7.7589356e-07  6.7582284e-07    0.073452075    0.015069989 
   24000     4000  2.6846153e-07  3.5215856e-07    0.073452075     0.01356366 
   26000     4000  2.7274565e-07  3.2656711e-07    0.073452075    0.014217706 
   28000     4000  1.2396796e-07  2.1441771e-07    0.073452075    0.013450194 
   30000     4000  8.4972262e-08  2.3521113e-07    0.073452075    0.013558373 
   32000     4000  4.5085719e-08  9.9845965e-08    0.073452075    0.013235774 
   34000     4000  7.8055811e-08  1.1283663e-07    0.073452075    0.014437249 
   36000     4000  1.0451693e-08  7.3135575e-08    0.073452075     0.01170002 
   38000     4000  8.4642086e-10  5.4780862e-08    0.073452075   0.0063448713 
   40000     4000  2.1315364e-10  5.4299996e-08    0.073452075   0.0052726264 
   42000     4000  1.0958593e-10  5.4428778e-08    0.073452075   0.0055459206 
   44000     4000    2.00883e-10  5.4662809e-08    0.073452075    0.006294475 
   46000     4000  1.3188882e-10  5.4339863e-08    0.073452075    0.005820206 
   48000     4000  3.0856383e-11  5.4225968e-08    0.073452075   0.0053166799 
   50000     4000  6.8717568e-11  5.4532345e-08    0.073452075   0.0061115265 
   50001     4000  6.8432001e-11  5.4530998e-08    0.073452075   0.0061115265 
Loop time of 14.4795 on 2 procs for 50001 steps with 4000 atoms, finish time Thu Jun 11 20:32:06 2026


Pair  time (%) = 10.6682 (73.6775)
Neigh time (%) = 0.084099 (0.580812)
Comm  time (%) = 0.327243 (2.26004)
Outpt time (%) = 0.0313475 (0.216495)
Other time (%) = 3.36868 (23.2651)

Nlocal:    2000 ave 2005 max 1995 min
Histogram: 1 0 0 0 0 0 0 0 0 1
Nghost:    381.5 ave 383 max 380 min
Histogram: 1 0 0 0 0 0 0 0 0 1
Neighs:    13738 ave 13769 max 13707 min
Histogram: 1 0 0 0 0 0 0 0 0 1

Total # of neighbors = 27476
Ave neighs/atom = 6.869
Neighbor list builds = 75
Dangerous builds = 0
AUDIT settle: step 50001  KE = 6.84320006884935e-11 J  (target < 2e-8 J for quasi-static)
Setting up run at Thu Jun 11 20:32:06 2026

Memory usage per processor = 17.4454 Mbytes
    Step    Atoms         KinEng            rke          ts[1]          ts[2] 
   50001     4000  6.8432001e-11  5.4530998e-08    0.073452075   0.0061115265 
   52000     4000  7.8690537e-07  5.9997489e-07    0.073452075      0.0132178 
   54000     4000  9.4000088e-07  7.9287163e-07    0.073452075    0.014735868 
   56000     4000  1.2094394e-06  7.8977086e-07    0.073452075    0.017099311 
   58000     4000  1.0818859e-06  9.0450397e-07    0.073452075    0.015577444 
   60000     4000  1.3704343e-06  1.1262056e-06    0.073452075    0.015687539 
   62000     4000  8.9297211e-07  6.9364446e-07    0.073452075    0.015233395 
   64000     4000  7.3003819e-07  6.8793913e-07    0.073452075    0.014749096 
   66000     4000  1.4118766e-06  8.3167811e-07    0.073452075    0.016732319 
   68000     4000  1.3371089e-06  8.2043775e-07    0.073452075    0.017412935 
   70000     4000  8.6485546e-07  7.7093758e-07    0.073452075    0.014611584 
   72000     4000  1.2441169e-06  1.0006913e-06    0.073452075     0.01543363 
   74000     4000  1.1260612e-06  1.0078861e-06    0.073452075     0.01562621 
   76000     4000  7.3937669e-07  8.2364311e-07    0.073452075    0.014046857 
   78000     4000   8.334591e-07  6.1599442e-07    0.073452075    0.015415204 
   80000     4000  9.7644096e-07  6.3179777e-07    0.073452075    0.015814164 
   82000     4000   1.387467e-06  9.0308887e-07    0.073452075    0.017583491 
   84000     4000  1.0905949e-06  6.2541247e-07    0.073452075     0.01736152 
   86000     4000  7.2946077e-07  7.0586516e-07    0.073452075     0.01439008 
   88000     4000  9.7961116e-07  9.1410281e-07    0.073452075    0.015184631 
   90000     4000  9.1756415e-07  1.0447381e-06    0.073452075    0.014656951 
   92000     4000  1.4461327e-06  6.3906569e-07    0.073452075    0.016735673 
   94000     4000  1.2221841e-06  7.8271281e-07    0.073452075    0.017324512 
   96000     4000  1.6432756e-06  1.0923629e-06    0.073452075    0.015688515 
   98000     4000   2.424146e-06  1.1522227e-06    0.073452075    0.016456604 
  100000     4000  3.2095925e-06  1.4653355e-06    0.073452075    0.017111318 
  102000     4000  2.8170226e-06  1.3588416e-06    0.073452075    0.015799895 
  104000     4000  2.8856106e-06  1.5033343e-06    0.073452075    0.016949267 
  106000     4000  3.0782085e-06  1.4868006e-06    0.073452075    0.017099758 
  108000     4000  2.5120789e-06  1.6785667e-06    0.073452075    0.015270689 
  110000     4000  4.3681866e-06  2.0749479e-06    0.073452075    0.017340891 
  112000     4000  3.3771489e-06  1.6761759e-06    0.073452075    0.017729439 
  114000     4000  3.2107563e-06  1.7160839e-06    0.073452075    0.017416024 
  116000     4000  4.4784209e-06  1.6570254e-06    0.073452075     0.01766611 
  118000     4000  4.0074393e-06   2.248146e-06    0.073452075    0.017470558 
  120000     4000  3.0977491e-06  2.0442302e-06    0.073452075    0.016677277 
  122000     4000  3.9133226e-06  1.8611752e-06    0.073452075    0.017635201 
  124000     4000  5.5171175e-06   2.127722e-06    0.073452075    0.018516739 
  126000     4000  5.0583622e-06   2.287275e-06    0.073452075    0.018039871 
  128000     4000  3.4025772e-06  1.8289335e-06    0.073452075    0.018086139 
  130000     4000    2.44608e-06  1.5359341e-06    0.073452075    0.015711352 
  132000     4000  3.2834387e-06  1.6665147e-06    0.073452075    0.017101397 
  134000     4000  4.6239026e-06  2.3431992e-06    0.073452075    0.017821356 
  136000     4000  6.0177502e-06  2.3130011e-06    0.073452075    0.018200178 
  138000     4000  5.8882894e-06  2.1675343e-06    0.073452075    0.018761667 
  140000     4000  7.5013131e-06  2.5911261e-06    0.073452075    0.018849197 
  142000     4000  7.4590332e-06  2.5992149e-06    0.073452075    0.019147892 
  144000     4000  6.4026777e-06  2.1864387e-06    0.073452075    0.018521194 
  146000     4000  4.3606874e-06  2.3623167e-06    0.073452075    0.017789744 
  148000     4000  5.8086524e-06  2.5953328e-06    0.073452075     0.01668459 
  150000     4000   8.354509e-06  2.7493949e-06    0.073452075    0.018049137 
  152000     4000  7.3874358e-06   2.847673e-06    0.073452075    0.017745865 
  154000     4000  8.9154569e-06  3.3100873e-06    0.073452075    0.018584147 
  156000     4000  9.4509292e-06  3.6054967e-06    0.073452075    0.018857803 
  158000     4000  1.0275422e-05  3.8790387e-06    0.073452075    0.017535638 
  160000     4000   1.366367e-05  4.5564782e-06    0.073452075    0.017863647 
  162000     4000  1.0164267e-05  3.9357364e-06    0.073452075    0.017498582 
  164000     4000  8.6101256e-06  3.7606503e-06    0.073452075     0.01791002 
  166000     4000  9.0325795e-06  3.3814997e-06    0.073452075    0.017939463 
  168000     4000  9.8923591e-06  4.0273158e-06    0.073452075    0.018572531 
  170000     4000   8.220807e-06  4.2667728e-06    0.073452075    0.017606953 
  172000     4000   1.282403e-05  4.7205108e-06    0.073452075    0.018571227 
  174000     4000  1.3091776e-05  4.1917952e-06    0.073452075     0.01938418 
  176000     4000  1.3568683e-05  4.0884254e-06    0.073452075    0.019499496 
  178000     4000  1.3745651e-05  4.5016897e-06    0.073452075    0.018240415 
  180000     4000  1.7728113e-05  4.8970688e-06    0.073452075    0.018706145 
  182000     4000  2.1069943e-05  6.1564199e-06    0.073452075    0.019245983 
  184000     4000  3.0566476e-05  7.8002818e-06    0.073452075    0.019033865 
  186000     4000  4.0741627e-05  1.0797085e-05    0.073452075    0.019412901 
  188000     4000  3.0919298e-05  9.5362844e-06    0.073452075    0.018465814 
  190000     4000  3.0122691e-05   8.915595e-06    0.073452075    0.019477272 
  192000     4000  2.1433409e-05  7.8359063e-06    0.073452075    0.018734838 
  194000     4000  2.3451488e-05  7.4419113e-06    0.073452075    0.019661293 
  196000     4000  2.2217107e-05   7.037443e-06    0.073452075     0.01879011 
  198000     4000  2.9251459e-05  8.0042327e-06    0.073452075    0.019631755 
  200000     4000  4.1888622e-05  9.7655643e-06    0.073452075    0.019002391 
  202000     4000    4.67826e-05   1.059215e-05    0.073452075    0.018851262 
  204000     4000  4.6772084e-05  1.2652078e-05    0.073452075    0.019736919 
  206000     4000  4.7182831e-05  1.1454501e-05    0.073452075    0.020463268 
  208000     4000  4.7214589e-05  1.4214959e-05    0.073452075    0.018793772 
  210000     4000  6.3078688e-05  1.4325814e-05    0.073452075    0.019120743 
  212000     4000  7.5606138e-05  1.6439901e-05    0.073452075    0.019273474 
  214000     4000  5.8595968e-05  1.4655922e-05    0.073452075    0.019730004 
  216000     4000   5.170414e-05  1.4230478e-05    0.073452075    0.018871069 
  218000     4000  4.9864206e-05  1.3245005e-05    0.073452075    0.019604255 
  220000     4000  5.3387954e-05  1.4687265e-05    0.073452075    0.018570635 
  222000     4000  5.7348331e-05  1.5314982e-05    0.073452075    0.019112635 
  224000     4000  6.1774034e-05    1.57118e-05    0.073452075    0.019274036 
  226000     4000  6.8889992e-05  1.5769016e-05    0.073452075    0.019528646 
  228000     4000  7.9636477e-05  1.7857924e-05    0.073452075     0.01966008 
  230000     4000  9.0773081e-05  2.0054389e-05    0.073452075    0.019511064 
  232000     4000  7.9442141e-05   1.778123e-05    0.073452075    0.019674763 
  234000     4000  6.2829831e-05  1.6361425e-05    0.073452075    0.019269467 
  236000     4000  5.6882822e-05   1.415625e-05    0.073452075    0.019844269 
  238000     4000  6.0298945e-05  1.5489119e-05    0.073452075    0.019572585 
  240000     4000  5.3150872e-05  1.6016542e-05    0.073452075    0.020068594 
  242000     4000  6.2806446e-05  1.4756806e-05    0.073452075    0.019667763 
  244000     4000  6.1479281e-05  1.4707421e-05    0.073452075    0.019742501 
  246000     4000  5.2130493e-05  1.4298277e-05    0.073452075    0.019676282 
  248000     4000  4.7461604e-05  1.3403678e-05    0.073452075     0.01939626 
  250000     4000  4.1456418e-05  1.1820502e-05    0.073452075    0.018772151 
  252000     4000  4.3549082e-05   1.308016e-05    0.073452075    0.019301062 
  254000     4000  4.9457247e-05  1.3146943e-05    0.073452075    0.019643492 
  256000     4000  4.9794248e-05  1.2556835e-05    0.073452075     0.01876968 
  258000     4000  4.6951028e-05  1.2222679e-05    0.073452075    0.019737243 
  260000     4000  4.4201291e-05  1.1619862e-05    0.073452075     0.01962137 
  262000     4000  3.8568978e-05   1.096778e-05    0.073452075    0.019216691 
  264000     4000  4.2648253e-05  1.1596633e-05    0.073452075    0.018965129 
  266000     4000  4.5544956e-05  1.1493592e-05    0.073452075    0.018823757 
  268000     4000  4.4040013e-05  1.1683718e-05    0.073452075    0.020165522 
  270000     4000  3.9030428e-05  1.0531223e-05    0.073452075    0.019858371 
  272000     4000  3.7763744e-05   1.047768e-05    0.073452075    0.019372769 
  274000     4000  3.2822668e-05  1.0481634e-05    0.073452075    0.018991218 
  276000     4000  3.1500421e-05  9.6460453e-06    0.073452075    0.019256772 
  278000     4000  2.8895186e-05  9.9127115e-06    0.073452075    0.018955428 
  280000     4000  3.6039789e-05  1.0474738e-05    0.073452075    0.019478061 
  282000     4000  4.0100725e-05  1.0860636e-05    0.073452075     0.01966065 
  284000     4000  4.8382066e-05  1.2992461e-05    0.073452075    0.019774012 
  286000     4000  4.9564044e-05  1.3110151e-05    0.073452075    0.018776401 
  288000     4000   6.392327e-05  1.4971295e-05    0.073452075     0.01975459 
  290000     4000  6.3651452e-05  1.4782804e-05    0.073452075    0.019509294 
  292000     4000  6.7969561e-05   1.573114e-05    0.073452075    0.019248695 
  294000     4000  7.2513237e-05  1.6262836e-05    0.073452075    0.019342782 
  296000     4000  6.7552085e-05  1.6275272e-05    0.073452075    0.019290561 
  298000     4000  6.8845501e-05  1.5782328e-05    0.073452075    0.019579304 
  300000     4000   6.171996e-05  1.5053942e-05    0.073452075    0.020629172 
  302000     4000  6.5737517e-05   1.562248e-05    0.073452075    0.020335891 
  304000     4000  6.3634449e-05   1.612129e-05    0.073452075    0.019606365 
  306000     4000   6.534177e-05  1.5773094e-05    0.073452075    0.019507277 
  308000     4000  6.3081397e-05  1.7026676e-05    0.073452075    0.019341137 
  310000     4000  6.0823205e-05  1.6542248e-05    0.073452075    0.018985297 
  312000     4000   6.190309e-05  1.5527144e-05    0.073452075    0.020488872 
  314000     4000  5.7039819e-05  1.5185121e-05    0.073452075    0.019779185 
  316000     4000  6.6271051e-05  1.6713934e-05    0.073452075    0.020853747 
  318000     4000  5.9905947e-05  1.6667884e-05    0.073452075    0.019029653 
  320000     4000  6.8855975e-05  1.7682234e-05    0.073452075    0.019338384 
  322000     4000  7.4359959e-05  1.8533505e-05    0.073452075    0.019398994 
  324000     4000  6.2094894e-05  1.7868368e-05    0.073452075    0.018914569 
  326000     4000  6.4588611e-05  1.8044724e-05    0.073452075    0.019204094 
  328000     4000  6.4440782e-05  1.7276405e-05    0.073452075     0.01914089 
  330000     4000  5.7917627e-05  1.6417953e-05    0.073452075    0.020075711 
  332000     4000  5.5066245e-05  1.4781364e-05    0.073452075     0.01959743 
  334000     4000  6.0646509e-05  1.5000056e-05    0.073452075    0.019148814 
  336000     4000  5.1949784e-05  1.4426784e-05    0.073452075     0.01874207 
  338000     4000  4.9341584e-05  1.3703282e-05    0.073452075    0.018394634 
  340000     4000  4.5832095e-05  1.2839894e-05    0.073452075     0.01980192 
  342000     4000  4.0074931e-05  1.1317093e-05    0.073452075    0.019189115 
  344000     4000  3.6455008e-05  1.1750854e-05    0.073452075    0.019573884 
  346000     4000  3.5737547e-05   1.036228e-05    0.073452075     0.01992521 
  348000     4000  2.3793282e-05  8.3392962e-06    0.073452075    0.018843447 
  350000     4000  1.8008914e-05  6.6312726e-06    0.073452075    0.019116934 
  352000     4000  1.4717432e-05  5.8105092e-06    0.073452075     0.01855804 
  354000     4000  1.2083496e-05   5.264196e-06    0.073452075    0.018222954 
  356000     4000  1.1800089e-05  4.5577827e-06    0.073452075    0.019076304 
  358000     4000  1.1156037e-05  4.1261605e-06    0.073452075    0.019296002 
  360000     4000  9.0800075e-06  3.8054815e-06    0.073452075    0.018077606 
  362000     4000  6.2430136e-06  2.5972367e-06    0.073452075     0.01758487 
  364000     4000  4.3905128e-06  1.9965159e-06    0.073452075    0.017799263 
  366000     4000    3.89936e-06  2.0029556e-06    0.073452075    0.017942462 
  368000     4000   3.728949e-06  1.8296233e-06    0.073452075    0.018580791 
  370000     4000  3.1857631e-06   1.505822e-06    0.073452075    0.017753543 
  372000     4000  2.2424901e-06  1.2450392e-06    0.073452075     0.01757796 
  374000     4000  1.9700979e-06  1.0944544e-06    0.073452075    0.016947637 
  376000     4000  1.5994151e-06  1.0101088e-06    0.073452075    0.017136567 
  378000     4000  2.0175606e-06  1.2024258e-06    0.073452075    0.018210503 
  380000     4000   1.159278e-06  8.1720687e-07    0.073452075    0.016528097 
  382000     4000  9.7657459e-07  5.5816458e-07    0.073452075    0.017362919 
  384000     4000  6.1706802e-07  5.5979742e-07    0.073452075     0.01544028 
  386000     4000  6.2500673e-07  5.3831498e-07    0.073452075    0.014742694 
  388000     4000  8.2915192e-07  6.2218889e-07    0.073452075     0.01509713 
  390000     4000  3.2350395e-07  3.5861849e-07    0.073452075    0.013977595 
  392000     4000  4.3785983e-07  4.9960223e-07    0.073452075    0.015548979 
  394000     4000  3.8106336e-07  3.4203657e-07    0.073452075    0.014969908 
  396000     4000  3.3078486e-07  3.5429015e-07    0.073452075    0.014233494 
  398000     4000  4.1340971e-07  3.9915621e-07    0.073452075    0.015455909 
  400000     4000  5.0656554e-07  3.1006559e-07    0.073452075    0.016011962 
  402000     4000  3.8401446e-07  2.7064087e-07    0.073452075    0.015443066 
  404000     4000  6.7768838e-08  1.8198425e-07    0.073452075    0.012522246 
  406000     4000  2.1107069e-08  1.4918438e-07    0.073452075    0.011172491 
  408000     4000  2.3430466e-08  1.5971389e-07    0.073452075    0.012296035 
  410000     4000   3.114271e-08  1.9096212e-07    0.073452075    0.012089089 
  412000     4000  3.6638713e-08  2.4961756e-07    0.073452075    0.012844114 
  414000     4000  8.2242495e-08  2.1377668e-07    0.073452075    0.014497164 
  416000     4000  7.7793404e-09  1.4280167e-07    0.073452075    0.010035352 
  418000     4000  1.2082306e-08  1.4513413e-07    0.073452075    0.010711909 
  420000     4000  4.1039684e-09  1.3765718e-07    0.073452075    0.010066762 
  422000     4000  8.6317645e-09  1.4309245e-07    0.073452075    0.011034059 
  424000     4000  7.3787917e-09  1.4252538e-07    0.073452075    0.011062138 
  426000     4000  7.2700481e-10  1.3238832e-07    0.073452075   0.0095450814 
  428000     4000  1.9485534e-11  1.3128361e-07    0.073452075   0.0087435301 
  430000     4000  3.3808772e-12  1.3126474e-07    0.073452075   0.0086814046 
  432000     4000  5.0685357e-12  1.3127738e-07    0.073452075   0.0086808042 
  434000     4000  5.0367651e-12  1.3126916e-07    0.073452075   0.0086820198 
  436000     4000  2.4556495e-12  1.3127024e-07    0.073452075   0.0086808845 
  438000     4000   6.122749e-13  1.3126949e-07    0.073452075   0.0086808022 
  440000     4000  1.1110725e-12  1.3126896e-07    0.073452075   0.0086792599 
  442000     4000  2.0387972e-12  1.3126876e-07    0.073452075   0.0086781388 
  444000     4000  1.9878658e-12  1.3126541e-07    0.073452075   0.0086773923 
  446000     4000  8.3258554e-13  1.3126827e-07    0.073452075   0.0086790036 
  448000     4000  2.6055157e-13  1.3126766e-07    0.073452075   0.0086788885 
  450000     4000  6.3573244e-13  1.3126972e-07    0.073452075   0.0086801527 
  452000     4000  8.9166846e-13  1.3126269e-07    0.073452075   0.0086795843 
  454000     4000  8.8162044e-13  1.3127196e-07    0.073452075   0.0086792952 
  456000     4000  2.2704235e-13  1.3126313e-07    0.073452075   0.0086779858 
  458000     4000  1.9975848e-13  1.3126804e-07    0.073452075   0.0086788261 
  460000     4000  2.8843475e-13  1.3126475e-07    0.073452075   0.0086760304 
  462000     4000  4.9478953e-13  1.3126873e-07    0.073452075   0.0086788387 
  464000     4000  3.7907582e-13  1.3126759e-07    0.073452075   0.0086794638 
  466000     4000  2.1272001e-13  1.3126626e-07    0.073452075   0.0086785191 
  468000     4000  1.5530805e-13  1.3126695e-07    0.073452075   0.0086771292 
  470000     4000  2.2342245e-13  1.3126878e-07    0.073452075   0.0086785278 
  472000     4000  2.5493742e-13  1.3126554e-07    0.073452075   0.0086767389 
  474000     4000  1.6990892e-13  1.3126552e-07    0.073452075   0.0086764032 
  476000     4000  1.7417936e-13  1.3126949e-07    0.073452075   0.0086784212 
  478000     4000   1.390768e-13  1.3126511e-07    0.073452075   0.0086788323 
  480000     4000  1.6117917e-13   1.312685e-07    0.073452075   0.0086775442 
  482000     4000   1.267182e-13  1.3126369e-07    0.073452075   0.0086758722 
  484000     4000  1.6791006e-13   1.312686e-07    0.073452075   0.0086785997 
  486000     4000  6.5277509e-14  1.3126518e-07    0.073452075   0.0086760958 
  488000     4000  1.2464243e-13  1.3126482e-07    0.073452075    0.008676672 
  490000     4000  1.1048056e-13  1.3126603e-07    0.073452075   0.0086781042 
  492000     4000   1.688514e-13  1.3126746e-07    0.073452075   0.0086781584 
  494000     4000  7.9683559e-14  1.3126344e-07    0.073452075   0.0086765551 
  496000     4000  8.4799448e-14  1.3126557e-07    0.073452075   0.0086750323 
  498000     4000  7.8206409e-14   1.312649e-07    0.073452075    0.008677959 
  500000     4000  8.0716712e-14  1.3126488e-07    0.073452075   0.0086771656 
  502000     4000  8.7052918e-14  1.3126477e-07    0.073452075   0.0086766402 
  504000     4000  6.9865446e-14  1.3126246e-07    0.073452075   0.0086776823 
  506000     4000  1.1786213e-13  1.3126718e-07    0.073452075   0.0086781903 
  508000     4000  5.0441086e-14  1.3126239e-07    0.073452075   0.0086756188 
  510000     4000  6.0015967e-14  1.3126302e-07    0.073452075   0.0086757601 
  512000     4000  5.0425252e-14  1.3126379e-07    0.073452075   0.0086770627 
  514000     4000  8.6665287e-14   1.312641e-07    0.073452075   0.0086777801 
  516000     4000  4.3234668e-14  1.3126229e-07    0.073452075   0.0086765591 
  518000     4000  7.1407821e-14  1.3126379e-07    0.073452075   0.0086772167 
  520000     4000  7.1075405e-14  1.3126306e-07    0.073452075   0.0086778045 
  522000     4000  7.3448975e-14  1.3126489e-07    0.073452075   0.0086767426 
  524000     4000  3.0350152e-14  1.3126185e-07    0.073452075   0.0086737492 
  526000     4000   4.846294e-14  1.3126314e-07    0.073452075   0.0086758212 
  528000     4000  7.6585092e-14  1.3126585e-07    0.073452075   0.0086779434 
  530000     4000  5.5947486e-14  1.3126257e-07    0.073452075   0.0086764015 
  532000     4000  6.6070957e-14  1.3126432e-07    0.073452075   0.0086767144 
  534000     4000  6.7384301e-14  1.3126452e-07    0.073452075   0.0086770404 
  536000     4000  7.7720404e-14  1.3126478e-07    0.073452075   0.0086773796 
  538000     4000  3.4529618e-14  1.3126387e-07    0.073452075   0.0086752943 
  540000     4000  5.3150021e-14  1.3126363e-07    0.073452075   0.0086754726 
  542000     4000  6.5302444e-14   1.312647e-07    0.073452075   0.0086776425 
  544000     4000  8.0292955e-14  1.3126564e-07    0.073452075   0.0086763185 
  546000     4000   3.862715e-14  1.3126206e-07    0.073452075   0.0086761886 
  548000     4000  6.8352614e-14   1.312651e-07    0.073452075   0.0086758692 
  550000     4000  5.8192584e-14  1.3126447e-07    0.073452075   0.0086776435 
  552000     4000  4.3789019e-14  1.3126298e-07    0.073452075   0.0086753679 
  554000     4000  3.3997751e-14  1.3126363e-07    0.073452075   0.0086752607 
  556000     4000  5.8675281e-14  1.3126345e-07    0.073452075   0.0086769325 
  558000     4000  6.5610955e-14  1.3126456e-07    0.073452075   0.0086770652 
  560000     4000  3.8866025e-14   1.312629e-07    0.073452075   0.0086756466 
  562000     4000   4.203944e-14   1.312624e-07    0.073452075   0.0086744612 
  564000     4000  4.7869225e-14  1.3126427e-07    0.073452075   0.0086774733 
  566000     4000  4.4136884e-14  1.3126315e-07    0.073452075   0.0086759189 
  568000     4000  1.4925123e-14  1.3126124e-07    0.073452075   0.0086736377 
  570000     4000    5.17412e-14  1.3126393e-07    0.073452075   0.0086759059 
  572000     4000  4.6757582e-14  1.3126245e-07    0.073452075   0.0086773712 
  574000     4000  3.9213484e-14   1.312626e-07    0.073452075   0.0086750976 
  576000     4000   1.844103e-14  1.3126159e-07    0.073452075    0.008673761 
  578000     4000  3.6136609e-14  1.3126206e-07    0.073452075   0.0086768613 
  580000     4000  3.7088112e-14  1.3126318e-07    0.073452075    0.008676679 
  582000     4000   1.694807e-14  1.3126082e-07    0.073452075   0.0086738195 
  584000     4000  3.0623318e-14  1.3126172e-07    0.073452075   0.0086749378 
  586000     4000  4.8523374e-14  1.3126343e-07    0.073452075   0.0086772479 
  588000     4000  3.4297976e-14  1.3126166e-07    0.073452075   0.0086755332 
  590000     4000  1.6386116e-14  1.3126173e-07    0.073452075   0.0086731785 
  592000     4000  3.3907473e-14  1.3126276e-07    0.073452075   0.0086759109 
  594000     4000  3.8590887e-14  1.3126264e-07    0.073452075   0.0086770835 
  596000     4000   3.379047e-14  1.3126317e-07    0.073452075   0.0086741684 
  598000     4000  2.7119079e-14  1.3126175e-07    0.073452075   0.0086747788 
  600000     4000  5.3860288e-14  1.3126386e-07    0.073452075   0.0086767525 
  602000     4000  4.4434578e-14  1.3126387e-07    0.073452075   0.0086763603 
  604000     4000  2.5112757e-14  1.3126188e-07    0.073452075   0.0086750455 
  606000     4000  2.9627974e-14  1.3126335e-07    0.073452075   0.0086751496 
  608000     4000   4.973114e-14  1.3126389e-07    0.073452075   0.0086770613 
  610000     4000  3.4774328e-14   1.312627e-07    0.073452075   0.0086753077 
  612000     4000  3.2697906e-14    1.31263e-07    0.073452075   0.0086753215 
  614000     4000  4.0663777e-14  1.3126276e-07    0.073452075   0.0086759009 
  616000     4000  4.6010416e-14  1.3126365e-07    0.073452075    0.008676775 
  618000     4000  2.6237669e-14  1.3126265e-07    0.073452075   0.0086751028 
  620000     4000  1.7579014e-14  1.3126144e-07    0.073452075    0.008674961 
  622000     4000  4.4878044e-14  1.3126388e-07    0.073452075   0.0086766288 
  624000     4000  3.3767756e-14  1.3126251e-07    0.073452075   0.0086760026 
  626000     4000  2.5190207e-14  1.3126173e-07    0.073452075   0.0086743365 
  628000     4000  2.7233246e-14  1.3126268e-07    0.073452075   0.0086747655 
  630000     4000  3.8497043e-14  1.3126252e-07    0.073452075     0.00867683 
  632000     4000  2.1107361e-14  1.3126222e-07    0.073452075   0.0086747968 
  634000     4000  1.3106911e-14   1.312615e-07    0.073452075   0.0086730646 
  636000     4000  2.6640379e-14  1.3126175e-07    0.073452075   0.0086758802 
  638000     4000   3.477736e-14  1.3126293e-07    0.073452075   0.0086765073 
  640000     4000  1.7375471e-14  1.3126096e-07    0.073452075    0.008674069 
  642000     4000  1.3743611e-14  1.3126103e-07    0.073452075   0.0086736026 
  644000     4000  3.0567086e-14  1.3126251e-07    0.073452075   0.0086765074 
  646000     4000  1.7930049e-14  1.3126102e-07    0.073452075   0.0086756656 
  648000     4000  8.9336986e-15  1.3126108e-07    0.073452075   0.0086726273 
  650000     4000  1.8667308e-14  1.3126132e-07    0.073452075   0.0086748452 
  652000     4000  3.0861377e-14   1.312618e-07    0.073452075   0.0086766139 
  654000     4000   2.145385e-14  1.3126189e-07    0.073452075   0.0086744261 
  656000     4000  1.0887302e-14  1.3126068e-07    0.073452075   0.0086732148 
  658000     4000  2.5491396e-14  1.3126213e-07    0.073452075   0.0086758297 
  660000     4000  3.0263579e-14  1.3126273e-07    0.073452075   0.0086761965 
  662000     4000  1.2997056e-14  1.3126107e-07    0.073452075   0.0086739625 
  664000     4000  2.3615483e-14  1.3126235e-07    0.073452075   0.0086742025 
  666000     4000  3.5589033e-14  1.3126282e-07    0.073452075   0.0086763573 
  668000     4000  3.1866088e-14  1.3126243e-07    0.073452075    0.008675345 
  670000     4000  1.7905862e-14   1.312623e-07    0.073452075   0.0086747723 
  672000     4000  2.5711461e-14  1.3126211e-07    0.073452075   0.0086748871 
  674000     4000  3.5047527e-14  1.3126325e-07    0.073452075   0.0086763905 
  676000     4000  2.3544088e-14   1.312624e-07    0.073452075   0.0086750208 
  678000     4000  1.9028882e-14  1.3126151e-07    0.073452075   0.0086750167 
  680000     4000  3.3630153e-14  1.3126308e-07    0.073452075   0.0086757863 
  682000     4000   3.421631e-14  1.3126255e-07    0.073452075   0.0086759264 
  684000     4000   1.448747e-14  1.3126148e-07    0.073452075   0.0086748202 
  686000     4000  2.0916605e-14  1.3126222e-07    0.073452075   0.0086746748 
  688000     4000  2.7683732e-14  1.3126209e-07    0.073452075    0.008676213 
  690000     4000   2.503843e-14  1.3126229e-07    0.073452075   0.0086750063 
  692000     4000   1.379722e-14  1.3126138e-07    0.073452075   0.0086740742 
  694000     4000  2.1804657e-14  1.3126155e-07    0.073452075    0.008674911 
  696000     4000  3.1002625e-14  1.3126273e-07    0.073452075   0.0086761523 
  698000     4000  1.2594926e-14   1.312611e-07    0.073452075   0.0086737645 
  700000     4000  9.9203764e-15  1.3126108e-07    0.073452075   0.0086728904 
  702000     4000  2.2317841e-14  1.3126209e-07    0.073452075   0.0086757033 
  704000     4000  2.0796257e-14  1.3126134e-07    0.073452075   0.0086756307 
  706000     4000  1.0028617e-14  1.3126108e-07    0.073452075   0.0086729988 
  708000     4000  1.2001341e-14  1.3126096e-07    0.073452075   0.0086738315 
  710000     4000  2.2410415e-14  1.3126139e-07    0.073452075   0.0086760572 
  712000     4000  1.3531733e-14  1.3126143e-07    0.073452075   0.0086747098 
  714000     4000   3.099494e-15  1.3126016e-07    0.073452075   0.0086725589 
  716000     4000  1.4307397e-14  1.3126119e-07    0.073452075   0.0086749367 
  718000     4000  2.2446157e-14  1.3126176e-07    0.073452075   0.0086759314 
  720000     4000  1.0570986e-14  1.3126054e-07    0.073452075   0.0086734504 
  722000     4000    9.75215e-15  1.3126114e-07    0.073452075   0.0086729421 
  724000     4000  2.3012657e-14  1.3126168e-07    0.073452075   0.0086756329 
  726000     4000  1.9002601e-14  1.3126159e-07    0.073452075   0.0086753499 
  728000     4000  1.2022282e-14  1.3126152e-07    0.073452075   0.0086737879 
  730000     4000  1.4726809e-14   1.312613e-07    0.073452075   0.0086740239 
  732000     4000  2.9279857e-14  1.3126255e-07    0.073452075   0.0086758814 
  734000     4000  2.2063155e-14  1.3126211e-07    0.073452075   0.0086743912 
  736000     4000  1.2727551e-14  1.3126122e-07    0.073452075   0.0086745349 
  737501     4000  4.4943005e-15  1.3126036e-07    0.073452075   0.0086745349 
Loop time of 209.038 on 2 procs for 687500 steps with 4000 atoms, finish time Thu Jun 11 20:35:35 2026


Pair  time (%) = 160.312 (76.6904)
Neigh time (%) = 0.717555 (0.343265)
Comm  time (%) = 4.22069 (2.0191)
Outpt time (%) = 0.370043 (0.177022)
Other time (%) = 43.4176 (20.7702)

Nlocal:    2000 ave 2013 max 1987 min
Histogram: 1 0 0 0 0 0 0 0 0 1
Nghost:    316 ave 319 max 313 min
Histogram: 1 0 0 0 0 0 0 0 0 1
Neighs:    12828 ave 12851 max 12805 min
Histogram: 1 0 0 0 0 0 0 0 0 1

Total # of neighbors = 25656
Ave neighs/atom = 6.414
Neighbor list builds = 594
Dangerous builds = 0
Setting up run at Thu Jun 11 20:35:35 2026

Memory usage per processor = 17.4459 Mbytes
    Step    Atoms         KinEng            rke          ts[1]          ts[2] 
  737501     4000  4.4943005e-15  1.3126036e-07    0.073452075   0.0086745349 
  738000     4000  2.5518909e-14  1.3126257e-07    0.073452075   0.0029550771 
  740000     4000  2.5945406e-14  1.3126227e-07    0.073452075    0.003061506 
  742000     4000  1.6520481e-14  1.3126167e-07    0.073452075   0.0029298969 
  744000     4000  1.5291215e-14  1.3126185e-07    0.073452075   0.0029303678 
  746000     4000  2.6511251e-14  1.3126198e-07    0.073452075   0.0030415778 
  748000     4000  2.4642149e-14  1.3126223e-07    0.073452075   0.0029785704 
  750000     4000  1.2539665e-14  1.3126131e-07    0.073452075    0.002900165 
  752000     4000  1.6408428e-14  1.3126135e-07    0.073452075   0.0028788454 
  754000     4000    2.44233e-14  1.3126234e-07    0.073452075   0.0030657417 
  756000     4000  1.5638945e-14  1.3126128e-07    0.073452075    0.002822666 
  758000     4000  8.6582695e-15    1.31261e-07    0.073452075   0.0027770071 
  760000     4000    2.03473e-14  1.3126184e-07    0.073452075     0.00295463 
  762000     4000  2.0634876e-14  1.3126145e-07    0.073452075   0.0030313038 
  764000     4000  1.0277718e-14  1.3126122e-07    0.073452075     0.00260228 
  766000     4000  9.1508173e-15  1.3126091e-07    0.073452075   0.0025734512 
  768000     4000  1.6804116e-14  1.3126133e-07    0.073452075   0.0030273306 
  770000     4000  1.6266701e-14  1.3126153e-07    0.073452075   0.0029363815 
  772000     4000    3.40166e-15   1.312603e-07    0.073452075   0.0024708912 
  774000     4000  1.1508066e-14  1.3126095e-07    0.073452075   0.0028137315 
  776000     4000  1.7914443e-14  1.3126141e-07    0.073452075   0.0030413024 
  778000     4000  7.4315502e-15  1.3126042e-07    0.073452075   0.0027691291 
  780000     4000  4.2785817e-15  1.3126061e-07    0.073452075   0.0023695207 
  782000     4000  1.1452906e-14  1.3126085e-07    0.073452075   0.0029486083 
  784000     4000  1.5651778e-14  1.3126105e-07    0.073452075   0.0029997069 
  786000     4000  6.2550053e-15  1.3126078e-07    0.073452075   0.0024811566 
  787502     4000  7.4550511e-15  1.3126091e-07    0.073452075   0.0024811566 
Loop time of 14.7056 on 2 procs for 50001 steps with 4000 atoms, finish time Thu Jun 11 20:35:49 2026


Pair  time (%) = 11.7236 (79.7218)
Neigh time (%) = 0 (0)
Comm  time (%) = 0.290457 (1.97515)
Outpt time (%) = 0.0268495 (0.18258)
Other time (%) = 2.66472 (18.1204)

Nlocal:    2000 ave 2013 max 1987 min
Histogram: 1 0 0 0 0 0 0 0 0 1
Nghost:    316 ave 319 max 313 min
Histogram: 1 0 0 0 0 0 0 0 0 1
Neighs:    12828 ave 12851 max 12805 min
Histogram: 1 0 0 0 0 0 0 0 0 1

Total # of neighbors = 25656
Ave neighs/atom = 6.414
Neighbor list builds = 0
Dangerous builds = 0
AUDIT relax: KE = 7.45505106393803e-15 J  (heap should be static)
      238.35 real       474.35 user         1.84 sys
