LIGGGHTS (Version LIGGGHTS-PUBLIC 3.8.0, compiled 2026-06-11-14:52:41 by joshuamayo, git commit 3d5c00f20519e6bb6eb6756f51f1ad36564e649d)
# drawdown.in — Parameterized orifice-discharge (drawdown) flow test (Phase-9 probe).
#
# Fill the lifted-cylinder geometry over an annular floor whose orifice is
# blocked by a plug disk; settle; remove the plug; discharge through the
# orifice. Mass flow rate comes from fix massflow/mesh on a counting disk
# below the floor (delete_atoms keeps the shrink-wrapped domain bounded —
# the Phase-5 neighbor-grid lesson). The probe question is DISCRIMINATION
# along the Phase-8 friction valley, so no physical target is required yet.
#
# Inertial orifice flow is a genuinely different regime from the quasi-static
# heap and the slow-rolling drum — the two responses that proved degenerate
# for single spheres (results/phase9-drum/NOTES.md, M4).
#
# Run (from repo root):
#   mpirun -np 2 lmp_auto -in templates/drawdown.in \
#       -var TAG dev -var FRIC 0.4 -var ROLLFRIC 0.12 -var REST 0.5 -log log.dev
#
# Atom types: 1 = particles, 2 = walls (cylinder + floor + plug; matrix as aor.in).

# ---------------------------------------------------------------- variables
variable FRIC       index 0.40          # mu_s particle-particle  [calibration target]
variable FRICPW     index 0.40          # mu_s particle-wall      [calibration target]
variable ROLLFRIC   index 0.12          # mu_r particle-particle, epsd2 [target]
variable ROLLFRICPW index 0.12          # mu_r particle-wall, epsd2     [target]
variable REST       index 0.50          # restitution             [target, weak]
variable SEED       index 49979687      # insertion seed
variable TAG        index dev           # output label
variable NPART      index 4000          # particles inserted (the aor fill)
variable MESH       index templates/meshes/cylinder_r0.040_h0.100.stl
variable FLOORMESH  index templates/meshes/floor_annulus_r0.046_o0.011.stl
variable PLUGMESH   index templates/meshes/plug_disk_r0.0135.stl
variable CATCHMESH  index templates/meshes/catch_disk_r0.030.stl
variable YMOD       index 1.0e7         # softened Young's modulus [Pa]
variable DT         index 8.0e-6        # timestep [s]
variable GRAVZ      index -1.0          # gravity z sign (fault-injection knob)
variable SETTLET    index 0.4           # settle stage [s]
variable DISCHARGE  index 1.4           # discharge stage [s] (~full drain at D_o 22 mm)

# fixed (non-calibrated) material inputs
variable POIS       equal 0.25
variable RHO        equal 1400

variable settlesteps equal floor(v_SETTLET/v_DT+0.5)
variable opensteps   equal floor(0.09/v_DT+0.5)
variable dischsteps  equal floor(v_DISCHARGE/v_DT+0.5)-floor(0.09/v_DT+0.5)
variable dumpevery   equal 25000

# ---------------------------------------------------------------- setup
atom_style	granular
atom_modify	map array
boundary	m m m
newton		off
communicate	single vel yes
units		si

region		reg block -0.14 0.14 -0.14 0.14 -0.05 0.20 units box
create_box	2 reg
Created orthogonal box = (-0.14 -0.14 -0.05) to (0.14 0.14 0.2)
  1 by 2 by 1 MPI processor grid

neighbor	0.002 bin
neigh_modify	delay 0

# ---------------------------------------------------------------- material / contact model
fix 	m1 all property/global youngsModulus peratomtype ${YMOD} ${YMOD}
fix 	m1 all property/global youngsModulus peratomtype 1.0e7 ${YMOD}
fix 	m1 all property/global youngsModulus peratomtype 1.0e7 1.0e7
fix 	m2 all property/global poissonsRatio peratomtype ${POIS} ${POIS}
fix 	m2 all property/global poissonsRatio peratomtype 0.25 ${POIS}
fix 	m2 all property/global poissonsRatio peratomtype 0.25 0.25
fix 	m3 all property/global coefficientRestitution peratomtypepair 2 ${REST} ${REST} ${REST} ${REST}
fix 	m3 all property/global coefficientRestitution peratomtypepair 2 0.7 ${REST} ${REST} ${REST}
fix 	m3 all property/global coefficientRestitution peratomtypepair 2 0.7 0.7 ${REST} ${REST}
fix 	m3 all property/global coefficientRestitution peratomtypepair 2 0.7 0.7 0.7 ${REST}
fix 	m3 all property/global coefficientRestitution peratomtypepair 2 0.7 0.7 0.7 0.7
fix 	m4 all property/global coefficientFriction peratomtypepair 2 ${FRIC} ${FRICPW} ${FRICPW} ${FRICPW}
fix 	m4 all property/global coefficientFriction peratomtypepair 2 0.3315 ${FRICPW} ${FRICPW} ${FRICPW}
fix 	m4 all property/global coefficientFriction peratomtypepair 2 0.3315 0.3315 ${FRICPW} ${FRICPW}
fix 	m4 all property/global coefficientFriction peratomtypepair 2 0.3315 0.3315 0.3315 ${FRICPW}
fix 	m4 all property/global coefficientFriction peratomtypepair 2 0.3315 0.3315 0.3315 0.3315
fix 	m5 all property/global coefficientRollingFriction peratomtypepair 2 ${ROLLFRIC} ${ROLLFRICPW} ${ROLLFRICPW} ${ROLLFRICPW}
fix 	m5 all property/global coefficientRollingFriction peratomtypepair 2 0.1708 ${ROLLFRICPW} ${ROLLFRICPW} ${ROLLFRICPW}
fix 	m5 all property/global coefficientRollingFriction peratomtypepair 2 0.1708 0.1708 ${ROLLFRICPW} ${ROLLFRICPW}
fix 	m5 all property/global coefficientRollingFriction peratomtypepair 2 0.1708 0.1708 0.1708 ${ROLLFRICPW}
fix 	m5 all property/global coefficientRollingFriction peratomtypepair 2 0.1708 0.1708 0.1708 0.1708

pair_style gran model hertz tangential history rolling_friction epsd2
WARNING: 
	The contact model you specified is not located in any whitelist.
	Because of this the model will be run in an unoptimized version (increasing runtime by up to 20%).
	In order to optimize this model you have the following options:
		(i)  Run the genAutoExamplesWhitelist.sh script in your LIGGGHTS(R) source folder to automatically parse the input script
		(ii) Add the model combination by hand to your style_contact_model_user.whitelist that can be found in your LIGGGHTS(R) source folder
		(iii) Use the ENABLE_MODEL_* flag when building with cmake.
	If you perform one of the steps above LIGGGHTS(R) needs to be recompiled to generate the optimized code.

 (../contact_models.h:365)
pair_coeff	* *

timestep	${DT}
timestep	8.0e-6

fix		gravi all gravity 9.81 vector 0.0 0.0 ${GRAVZ}
fix		gravi all gravity 9.81 vector 0.0 0.0 -1.0

# cylinder side wall + annular floor + plug: ONE wall fix — LIGGGHTS 3.8
# supports a single wall/gran of style mesh, so the plug cannot get its own
# (first smoke run failed on exactly that). The orifice opens by MOVING the
# plug down out of the flow (fix move/mesh, the aor.in lift pattern) and
# parking it below the counting plane.
fix cyl   all mesh/surface file ${MESH} type 2
fix cyl   all mesh/surface file ../../../../../templates/meshes/cylinder_r0.040_h0.100.stl type 2
fix floor all mesh/surface file ${FLOORMESH} type 2
fix floor all mesh/surface file ../../../../../templates/meshes/floor_annulus_r0.046_o0.011.stl type 2
fix plug  all mesh/surface file ${PLUGMESH} type 2
fix plug  all mesh/surface file ../../../../../templates/meshes/plug_disk_r0.0135.stl type 2
fix statwall all wall/gran model hertz tangential history rolling_friction epsd2 mesh n_meshes 3 meshes cyl floor plug
WARNING: 
	The contact model you specified is not located in any whitelist.
	Because of this the model will be run in an unoptimized version (increasing runtime by up to 20%).
	In order to optimize this model you have the following options:
		(i)  Run the genAutoExamplesWhitelist.sh script in your LIGGGHTS(R) source folder to automatically parse the input script
		(ii) Add the model combination by hand to your style_contact_model_user.whitelist that can be found in your LIGGGHTS(R) source folder
		(iii) Use the ENABLE_MODEL_* flag when building with cmake.
	If you perform one of the steps above LIGGGHTS(R) needs to be recompiled to generate the optimized code.

 (../contact_models.h:365)

# counting plane below the orifice — NOT a wall; massflow counts + deletes
fix catch all mesh/surface file ${CATCHMESH} type 2
fix catch all mesh/surface file ../../../../../templates/meshes/catch_disk_r0.030.stl type 2
fix ms all massflow/mesh mesh catch vec_side 0. 0. -1. count once delete_atoms yes

# ---------------------------------------------------------------- particles (fixed PSD)
fix	pts1 all particletemplate/sphere 15485863 atom_type 1 density constant ${RHO} radius constant 0.0017
fix	pts1 all particletemplate/sphere 15485863 atom_type 1 density constant 1400 radius constant 0.0017
fix	pts2 all particletemplate/sphere 15485867 atom_type 1 density constant ${RHO} radius constant 0.00185
fix	pts2 all particletemplate/sphere 15485867 atom_type 1 density constant 1400 radius constant 0.00185
fix	pts3 all particletemplate/sphere 32452843 atom_type 1 density constant ${RHO} radius constant 0.0020
fix	pts3 all particletemplate/sphere 32452843 atom_type 1 density constant 1400 radius constant 0.0020
fix	pdd1 all particledistribution/discrete 32452867 3 pts1 0.25 pts2 0.50 pts3 0.25

region	bc cylinder z 0. 0. 0.0375 0.004 0.085 units box
fix	ins all insert/pack seed ${SEED} distributiontemplate pdd1 vel constant 0. 0. -0.3 		insert_every once overlapcheck yes all_in yes particles_in_region ${NPART} region bc
fix	ins all insert/pack seed 67867967 distributiontemplate pdd1 vel constant 0. 0. -0.3 		insert_every once overlapcheck yes all_in yes particles_in_region ${NPART} region bc
fix	ins all insert/pack seed 67867967 distributiontemplate pdd1 vel constant 0. 0. -0.3 		insert_every once overlapcheck yes all_in yes particles_in_region 4000 region bc

fix	integr all nve/sphere

# nevery 1000 to match the fine thermo cadence (thermo errors out when a
# referenced fix computes on an incompatible schedule)
fix	ts all check/timestep/gran 1000 0.1 0.1

# ---------------------------------------------------------------- output
# fine-grained thermo (8 ms) is the measurement: f_ms[1] = crossed mass [kg]
compute	rke all erotate/sphere
thermo_style	custom step atoms ke f_ms[1] f_ts[1] f_ts[2]
thermo		1000
thermo_modify	lost ignore norm no
dump	dmp all custom ${dumpevery} post/${TAG}_*.liggghts id type x y z vx vy vz omegax omegay omegaz radius
dump	dmp all custom 25000 post/${TAG}_*.liggghts id type x y z vx vy vz omegax omegay omegaz radius
dump	dmp all custom 25000 post/ddf067c051b3_s67867967_*.liggghts id type x y z vx vy vz omegax omegay omegaz radius

# ---------------------------------------------------------------- stages
# stage 1 — fill and settle over the plugged orifice
run	${settlesteps}
run	50000
Setting up run at Fri Jun 12 15:44:33 2026

INFO: Particle insertion ins: inserting every 0 steps
Memory usage per processor = 15.7366 Mbytes
    Step    Atoms         KinEng          ms[1]          ts[1]          ts[2] 
       0        0              0              0              0              0 
INFO: Particle insertion ins: inserted 4000 particle templates (mass 1.456074e-01) at step 1
 - a total of 4000 particle templates (mass 1.456074e-01) inserted so far.
    1000     4000    0.010426758              0    0.073452075    0.020600207 
    2000     4000    0.014112531              0    0.073452075    0.021843375 
    3000     4000    0.017211752              0    0.073452075     0.02237674 
    4000     4000    0.019821934              0    0.073452075    0.022871706 
    5000     4000    0.020932251              0    0.073452075    0.023459959 
    6000     4000    0.019931351              0    0.073452075    0.024074379 
    7000     4000    0.016193404              0    0.073452075    0.024379075 
    8000     4000   0.0090670087              0    0.073452075    0.024796323 
    9000     4000   0.0014055798              0    0.073452075     0.02505468 
   10000     4000  0.00026958399              0    0.073452075    0.021353976 
   11000     4000  0.00011563464              0    0.073452075    0.020473466 
   12000     4000  7.0165318e-05              0    0.073452075    0.020625487 
   13000     4000  4.2444393e-05              0    0.073452075    0.019512964 
   14000     4000  1.9878292e-05              0    0.073452075    0.019637513 
   15000     4000  1.0197223e-05              0    0.073452075    0.017824992 
   16000     4000  7.3264817e-06              0    0.073452075    0.017751159 
   17000     4000  4.2623354e-06              0    0.073452075    0.016873849 
   18000     4000  3.2150773e-06              0    0.073452075    0.016552109 
   19000     4000  2.4823981e-06              0    0.073452075    0.016350471 
   20000     4000  1.8872348e-06              0    0.073452075    0.016411109 
   21000     4000   1.456083e-06              0    0.073452075    0.016371305 
   22000     4000  1.1653261e-06              0    0.073452075     0.01617348 
   23000     4000  9.3932409e-07              0    0.073452075    0.015422081 
   24000     4000  9.4699806e-07              0    0.073452075    0.016005529 
   25000     4000  5.5613909e-07              0    0.073452075    0.015325737 
   26000     4000  4.5782166e-07              0    0.073452075    0.015085048 
   27000     4000  5.2135729e-07              0    0.073452075    0.016081221 
   28000     4000  2.9677991e-07              0    0.073452075    0.014513716 
   29000     4000  1.7863779e-07              0    0.073452075    0.014220131 
   30000     4000  9.6190905e-08              0    0.073452075    0.012843118 
   31000     4000  3.9751326e-08              0    0.073452075    0.012562125 
   32000     4000  4.0111131e-08              0    0.073452075    0.012648792 
   33000     4000  4.7937924e-08              0    0.073452075    0.013061442 
   34000     4000  7.6135703e-08              0    0.073452075    0.013720132 
   35000     4000  7.5963046e-08              0    0.073452075     0.01374209 
   36000     4000  3.1815635e-08              0    0.073452075    0.012430405 
   37000     4000  5.2422061e-08              0    0.073452075     0.01370946 
   38000     4000  2.2161823e-08              0    0.073452075    0.012876252 
   39000     4000  1.6897597e-08              0    0.073452075    0.012650696 
   40000     4000  1.1061315e-08              0    0.073452075    0.011334938 
   41000     4000  1.9440716e-09              0    0.073452075   0.0082258227 
   42000     4000  5.0404445e-10              0    0.073452075   0.0057151877 
   43000     4000   5.386283e-10              0    0.073452075   0.0057789908 
   44000     4000  2.9386339e-10              0    0.073452075   0.0056205058 
   45000     4000  4.6374519e-10              0    0.073452075   0.0055577402 
   46000     4000   1.985095e-10              0    0.073452075   0.0055374676 
   47000     4000  3.9139889e-10              0    0.073452075    0.005071351 
   48000     4000  1.2615817e-10              0    0.073452075   0.0054827402 
   49000     4000  3.5414733e-10              0    0.073452075   0.0054860815 
   50000     4000  6.2159276e-11              0    0.073452075   0.0054040858 
Loop time of 30.2825 on 2 procs for 50000 steps with 4000 atoms, finish time Fri Jun 12 15:45:03 2026


Pair  time (%) = 17.2966 (57.1175)
Neigh time (%) = 0.120512 (0.397961)
Comm  time (%) = 0.571189 (1.8862)
Outpt time (%) = 0.009306 (0.0307306)
Other time (%) = 12.2849 (40.5676)

Nlocal:    2000 ave 2006 max 1994 min
Histogram: 1 0 0 0 0 0 0 0 0 1
Nghost:    384.5 ave 390 max 379 min
Histogram: 1 0 0 0 0 0 0 0 0 1
Neighs:    14010.5 ave 14099 max 13922 min
Histogram: 1 0 0 0 0 0 0 0 0 1

Total # of neighbors = 28021
Ave neighs/atom = 7.00525
Neighbor list builds = 81
Dangerous builds = 0
variable natoms equal atoms
print	"AUDIT settle: atoms = ${natoms} (target ${NPART})"
AUDIT settle: atoms = 4000 (target 4000)

# stage 2 — open the orifice: slide the plug down at 0.5 m/s for 0.09 s
# (parks at z ~ -0.044, below the counting plane), then discharge
fix	mvplug all move/mesh mesh plug linear 0. 0. -0.5
run	${opensteps}
run	11250
Setting up run at Fri Jun 12 15:45:03 2026

Memory usage per processor = 21.137 Mbytes
    Step    Atoms         KinEng          ms[1]          ts[1]          ts[2] 
   50000     4000  6.2159276e-11              0    0.073452075   0.0054040858 
   51000     4000  2.4972633e-05              0    0.073452075    0.019864722 
   52000     4000  4.7185318e-05              0    0.073452075    0.020356935 
   53000     4000  5.4185336e-05              0    0.073452075    0.020821239 
   54000     4000  8.1086057e-05              0    0.073452075    0.021215136 
   55000     4000  0.00011981763              0    0.073452075    0.021636692 
   56000     4000  0.00018003138              0    0.073452075    0.022165201 
   57000     4000  0.00026024681              0    0.073452075    0.022761398 
   58000     4000   0.0003633881              0    0.073452075    0.023307757 
   59000     4000  0.00048768724              0    0.073452075    0.023807231 
   60000     3984  0.00046240282  0.00052068076    0.073452075    0.024068961 
   61000     3976  0.00048679935  0.00088420764    0.073452075    0.024223981 
   61250     3974  0.00049549497  0.00095846882    0.073452075    0.024223981 
Loop time of 7.51538 on 2 procs for 11250 steps with 3974 atoms, finish time Fri Jun 12 15:45:10 2026


Pair  time (%) = 4.34801 (57.8549)
Neigh time (%) = 0.0875225 (1.16458)
Comm  time (%) = 0.1348 (1.79366)
Outpt time (%) = 0.0002885 (0.0038388)
Other time (%) = 2.94475 (39.183)

Nlocal:    1987 ave 1993 max 1981 min
Histogram: 1 0 0 0 0 0 0 0 0 1
Nghost:    390 ave 395 max 385 min
Histogram: 1 0 0 0 0 0 0 0 0 1
Neighs:    13569 ave 13668 max 13470 min
Histogram: 1 0 0 0 0 0 0 0 0 1

Total # of neighbors = 27138
Ave neighs/atom = 6.82889
Neighbor list builds = 54
Dangerous builds = 0
unfix	mvplug
run	${dischsteps}
run	163750
Setting up run at Fri Jun 12 15:45:10 2026

Memory usage per processor = 21.1369 Mbytes
    Step    Atoms         KinEng          ms[1]          ts[1]          ts[2] 
   61250     3974  0.00049549497  0.00095846882    0.073452075    0.024223981 
   62000     3968  0.00052913553   0.0011372671    0.073452075    0.024285317 
   63000     3961   0.0005614413   0.0014357764    0.073452075    0.024312874 
   64000     3951  0.00057087132   0.0018031569    0.073452075    0.024286276 
   65000     3943  0.00063866088   0.0020962762    0.073452075    0.024225431 
   66000     3934  0.00067639931   0.0024529484    0.073452075    0.024371732 
   67000     3924  0.00070139579   0.0028173997    0.073452075    0.024399569 
   68000     3911   0.0007032153   0.0032682849    0.073452075    0.024333999 
   69000     3897  0.00067294435   0.0038106101    0.073452075    0.024310956 
   70000     3889  0.00072424505   0.0041491792    0.073452075    0.024309819 
   71000     3876  0.00073226301   0.0045258033    0.073452075    0.024312161 
   72000     3863  0.00075130597   0.0050114302    0.073452075    0.024252778 
   73000     3853  0.00079924378   0.0053690268    0.073452075    0.024461687 
   74000     3836  0.00071617948   0.0059532605    0.073452075    0.024574832 
   75000     3827  0.00068903095   0.0063010732    0.073452075    0.024582382 
   76000     3819  0.00067839938    0.006610831    0.073452075    0.024536303 
   77000     3808  0.00068690767   0.0069488599    0.073452075    0.024543812 
   78000     3794  0.00062688663   0.0074823256    0.073452075    0.024441195 
   79000     3783  0.00061550729   0.0078301383    0.073452075    0.024647242 
   80000     3770  0.00058383438   0.0083112995    0.073452075    0.024500281 
   81000     3758  0.00054501405   0.0087324491    0.073452075    0.024334509 
   82000     3750  0.00057409448   0.0090597697    0.073452075    0.024479341 
   83000     3741  0.00062195535   0.0093318567    0.073452075    0.024305099 
   84000     3734  0.00066648272    0.009658253    0.073452075    0.024455156 
   85000     3724  0.00067917117    0.010040807    0.073452075    0.024336449 
   86000     3710  0.00062629262     0.01051126    0.073452075    0.024356031 
   87000     3701  0.00066707799    0.010833191    0.073452075    0.024262155 
   88000     3689  0.00066175583    0.011311963    0.073452075    0.024379718 
   89000     3678  0.00069470958    0.011696906    0.073452075    0.024409402 
   90000     3668  0.00072568839    0.012034011    0.073452075    0.024433434 
   91000     3655  0.00072440582    0.012522027    0.073452075    0.024508055 
   92000     3641  0.00067006066    0.013000799    0.073452075    0.024505306 
   93000     3634   0.0007302093    0.013307628    0.073452075    0.024372043 
   94000     3625   0.0007661088    0.013699966    0.073452075    0.024517366 
   95000     3612    0.000760431    0.014196841    0.073452075    0.024506567 
   96000     3603  0.00083046574     0.01448942    0.073452075     0.02452767 
   97000     3588  0.00081979835    0.014994615    0.073452075    0.024490779 
   98000     3573  0.00078949687    0.015555967    0.073452075    0.024427204 
   99000     3562  0.00083384574    0.015932592    0.073452075    0.024408251 
  100000     3545  0.00074865083    0.016597017    0.073452075    0.024562539 
  101000     3533  0.00074852065    0.016955538    0.073452075    0.024463814 
  102000     3521  0.00072527098    0.017387395    0.073452075    0.024568098 
  103000     3508  0.00071517884     0.01784121    0.073452075    0.024395404 
  104000     3496  0.00071888419    0.018282852    0.073452075    0.024630498 
  105000     3487   0.0007487143    0.018666871    0.073452075    0.024496658 
  106000     3475  0.00071994278    0.019153962    0.073452075    0.024505523 
  107000     3463  0.00072067924    0.019513023    0.073452075    0.024449408 
  108000     3454  0.00076869469    0.019832025    0.073452075    0.024435174 
  109000     3443  0.00078393859    0.020302478    0.073452075    0.024494739 
  110000     3430  0.00075471302    0.020752438    0.073452075     0.02457866 
  111000     3416  0.00072019532    0.021297153    0.073452075     0.02458322 
  112000     3404  0.00073207344    0.021683561    0.073452075    0.024475229 
  113000     3395  0.00075904567    0.022003102    0.073452075    0.024558375 
  114000     3383  0.00075529315    0.022499978    0.073452075    0.024581432 
  115000     3370  0.00070232424    0.022958258    0.073452075     0.02436037 
  116000     3361  0.00074039088    0.023295362    0.073452075    0.024394295 
  117000     3351  0.00076030764    0.023763426    0.073452075    0.024612483 
  118000     3335  0.00070625242     0.02430814    0.073452075    0.024579065 
  119000     3325   0.0007082916    0.024737609    0.073452075    0.024519756 
  120000     3314  0.00072343696    0.025120164    0.073452075    0.024526566 
  121000     3300  0.00071587608    0.025569584    0.073452075    0.024571339 
  122000     3290  0.00075776536    0.025964311    0.073452075    0.024669694 
  123000     3280  0.00078504163    0.026313589    0.073452075     0.02453297 
  124000     3270   0.0007902878     0.02663259    0.073452075    0.024573234 
  125000     3258  0.00077956952    0.027100654    0.073452075    0.024472785 
  126000     3247  0.00079653551    0.027513484    0.073452075    0.024554845 
  127000     3233  0.00072692388    0.028125221    0.073452075    0.024598902 
  128000     3217  0.00063721398    0.028732948    0.073452075      0.0247109 
  129000     3206  0.00060848401    0.029051949    0.073452075    0.024698745 
  130000     3195   0.0005808403    0.029445212    0.073452075    0.024644368 
  131000     3188  0.00060960486    0.029781392    0.073452075    0.024544747 
  132000     3177  0.00058181824    0.030147308    0.073452075    0.024356812 
  133000     3173  0.00067554061    0.030383729    0.073452075    0.024679516 
  134000     3162  0.00066119858    0.030673919    0.073452075    0.024463762 
  135000     3151  0.00064264561    0.031096533    0.073452075    0.024336266 
  136000     3142   0.0006655625    0.031422389    0.073452075    0.024517095 
  137000     3133  0.00070485857    0.031798089    0.073452075    0.024428367 
  138000     3117  0.00064550912    0.032386788    0.073452075    0.024519557 
  139000     3108  0.00065890579    0.032772272    0.073452075    0.024662026 
  140000     3094  0.00061073897     0.03320413    0.073452075    0.024504059 
  141000     3087  0.00065535978    0.033524596    0.073452075    0.024586465 
  142000     3078  0.00066048074    0.033805542    0.073452075    0.024531577 
  143000     3067  0.00064410143    0.034247184    0.073452075     0.02465297 
  144000     3058    0.000663675     0.03465023    0.073452075    0.024471653 
  145000     3045  0.00063562332    0.034998043    0.073452075    0.024621643 
  146000     3035  0.00065649229    0.035345856    0.073452075    0.024572359 
  147000     3027  0.00071257667     0.03572841    0.073452075    0.024607621 
  148000     3016  0.00069818207    0.036086007    0.073452075    0.024705374 
  149000     3004  0.00064827603     0.03651694    0.073452075    0.024362932 
  150000     2997  0.00070478508    0.036769999    0.073452075     0.02439601 
  151000     2983  0.00062925953    0.037323573    0.073452075    0.024385017 
  152000     2973  0.00061364518    0.037762826    0.073452075    0.024565257 
  153000     2959  0.00055040091    0.038260625    0.073452075    0.024532499 
  154000     2950  0.00054084075    0.038652964    0.073452075     0.02456001 
  155000     2943  0.00058030361    0.038823443    0.073452075    0.024478683 
  156000     2936  0.00061719265    0.039094605    0.073452075    0.024500529 
  157000     2923  0.00059508103    0.039538636    0.073452075    0.024422266 
  158000     2914  0.00063606523    0.039839534    0.073452075    0.024290716 
  159000     2903  0.00062521162    0.040270468    0.073452075    0.024369649 
  160000     2892  0.00062459054    0.040683298    0.073452075    0.024461642 
  161000     2882  0.00065228294    0.041022791    0.073452075    0.024237706 
  162000     2875  0.00073455449    0.041267532    0.073452075     0.02441763 
  163000     2865  0.00077402815    0.041642691    0.073452075     0.02434824 
  164000     2851  0.00075079863    0.042129783    0.073452075    0.024350745 
  165000     2839  0.00072401373    0.042646226    0.073452075    0.024487377 
  166000     2825  0.00068917646    0.043152345    0.073452075    0.024395316 
  167000     2811  0.00064536627    0.043658464    0.073452075    0.024604454 
  168000     2801  0.00067366271    0.043951043    0.073452075    0.024500212 
  169000     2792  0.00069300284    0.044354629    0.073452075    0.024341384 
  170000     2779  0.00068943225    0.044779632    0.073452075    0.024503008 
  171000     2769  0.00070011328    0.045239377    0.073452075    0.024609616 
  172000     2761  0.00073420212    0.045483193    0.073452075    0.024372885 
  173000     2747  0.00071784226    0.046037151    0.073452075    0.024542628 
  174000     2734  0.00068288983    0.046512994    0.073452075    0.024618432 
  175000     2720  0.00061751673    0.046936532    0.073452075      0.0244129 
  176000     2710  0.00061944384    0.047300984    0.073452075    0.024526343 
  177000     2698  0.00059730387    0.047704954    0.073452075    0.024478826 
  178000     2690  0.00061461304    0.048016177    0.073452075    0.024359267 
  179000     2680  0.00061140245    0.048420688    0.073452075    0.024456111 
  180000     2669  0.00059734858    0.048786604    0.073452075    0.024521222 
  181000     2659  0.00059170278    0.049206289    0.073452075    0.024526767 
  182000     2652  0.00063189813    0.049459348    0.073452075    0.024417361 
  183000     2639  0.00059088978    0.049911698    0.073452075    0.024315027 
  184000     2630  0.00058431745    0.050257122    0.073452075    0.024437097 
  185000     2621  0.00058380142    0.050621573    0.073452075      0.0247365 
  186000     2607  0.00049190408     0.05114726    0.073452075    0.024412784 
  187000     2598  0.00048747985    0.051455553    0.073452075    0.024612964 
  188000     2588   0.0004556509    0.051795046    0.073452075    0.024624217 
  189000     2580  0.00044577047    0.052056425    0.073452075     0.02440632 
  190000     2572   0.0004489808    0.052328512    0.073452075    0.024389694 
  191000     2567  0.00048330843    0.052628486    0.073452075    0.024485327 
  192000     2559  0.00048077236    0.052807284    0.073452075    0.024333012 
  193000     2549  0.00046232143    0.053161952    0.073452075    0.024171594 
  194000     2543  0.00049711531    0.053421866    0.073452075     0.02429865 
  195000     2533  0.00049151248    0.053731083    0.073452075    0.024302202 
  196000     2525  0.00050185524    0.054031057    0.073452075     0.02423999 
  197000     2517  0.00052801608    0.054331955    0.073452075    0.024505391 
  198000     2504  0.00049276489    0.054737391    0.073452075     0.02408723 
  199000     2496  0.00051394531    0.055093523    0.073452075    0.024525355 
  200000     2487  0.00052478162    0.055393497    0.073452075    0.024140315 
  201000     2476  0.00050208648    0.055786759    0.073452075    0.024224668 
  202000     2467  0.00050203121    0.056161919    0.073452075    0.024407322 
  203000     2454  0.00043536769    0.056573285    0.073452075     0.02446207 
  204000     2446  0.00042390005    0.056836128    0.073452075    0.024234546 
  205000     2441  0.00046395202    0.057006607    0.073452075    0.024458332 
  206000     2435  0.00049547734    0.057250423    0.073452075    0.024408055 
  207000     2427  0.00049267947     0.05760563    0.073452075    0.024525023 
  208000     2419  0.00048517385    0.057915388    0.073452075    0.024675537 
  209000     2411  0.00048300804    0.058207043    0.073452075    0.024531674 
  210000     2401  0.00044802322    0.058574423    0.073452075    0.024423039 
  211000     2393   0.0004352685    0.058882717    0.073452075    0.024463159 
  212000     2385  0.00043408449    0.059172907    0.073452075    0.024490154 
  213000     2376  0.00041527012    0.059510011    0.073452075    0.024455217 
  214000     2370  0.00044509691     0.05972594    0.073452075    0.024361695 
  215000     2363   0.0004576462    0.059950188    0.073452075    0.024166335 
  216000     2351  0.00041112612     0.06039183    0.073452075    0.024154709 
  217000     2345  0.00044207319    0.060597975    0.073452075    0.024039719 
  218000     2339  0.00047656056    0.060822223    0.073452075    0.024293422 
  219000     2330  0.00047168563    0.061215486    0.073452075    0.024430999 
  220000     2322  0.00048976252    0.061508605    0.073452075     0.02427809 
  221000     2313  0.00046606388    0.061788087    0.073452075    0.024255132 
  222000     2303  0.00043432209    0.062152538    0.073452075    0.024273785 
  223000     2296  0.00044797305    0.062435873    0.073452075    0.024581287 
  224000     2290  0.00046366465     0.06263131    0.073452075    0.024276952 
  225000     2284  0.00049565381    0.062922965    0.073452075    0.024279755 
Loop time of 82.4899 on 2 procs for 163750 steps with 2284 atoms, finish time Fri Jun 12 15:46:33 2026


Pair  time (%) = 44.3301 (53.74)
Neigh time (%) = 1.40513 (1.7034)
Comm  time (%) = 1.53409 (1.85973)
Outpt time (%) = 0.033575 (0.040702)
Other time (%) = 35.187 (42.6561)

Nlocal:    1142 ave 1160 max 1124 min
Histogram: 1 0 0 0 0 0 0 0 0 1
Nghost:    176 ave 176 max 176 min
Histogram: 2 0 0 0 0 0 0 0 0 0
Neighs:    6983 ave 7084 max 6882 min
Histogram: 1 0 0 0 0 0 0 0 0 1

Total # of neighbors = 13966
Ave neighs/atom = 6.11471
Neighbor list builds = 1163
Dangerous builds = 0
variable mout equal f_ms[1]
print	"AUDIT discharge-end: crossed mass = ${mout} kg, atoms left = ${natoms}"
AUDIT discharge-end: crossed mass = 0.0629229648088981 kg, atoms left = 2284

write_dump all custom post/${TAG}_final.liggghts id type x y z vx vy vz omegax omegay omegaz radius
write_dump all custom post/ddf067c051b3_s67867967_final.liggghts id type x y z vx vy vz omegax omegay omegaz radius
